MODEL 1
REMARK minimizedAffinity -6.59583664
REMARK CNNscore 0.563248217
REMARK CNNaffinity 6.44792366
REMARK SMILES CCCn1c(=O)c2[nH]c(-c3ccc(OCC(=O)NCC[NH3+])cc3)nc2n(CCC)c1=O
REMARK SMILES IDX 15 1 16 2 18 3 17 4 19 6 20 7 21 8 14 12 13 13 12 14 22 15
REMARK SMILES IDX 11 16 23 17 10 18 9 19 24 20 8 21 25 22 7 23 26 24 5 25
REMARK SMILES IDX 30 26 6 27 4 28 31 29 27 31 28 32 29 33 3 34 2 35 1 36
REMARK H PARENT 18 5 21 9 21 10 21 11 8 30
REMARK INDEX MAP 7 1 5 2 4 3 6 4 39 5 3 6 1 7 2 8 34 9 35 10 36 11 8 12 9 13
REMARK INDEX MAP 10 14 11 15 12 16 13 17 14 18 15 19 16 20 17 21 18 22 19 23
REMARK INDEX MAP 20 24 21 25 22 26 24 27 25 28 26 29 46 30 23 31 27 32 29 33
REMARK INDEX MAP 28 34 30 35 31 36
ROOT
ATOM      1  C   UNL     1      58.598  26.263  29.407  1.00  0.00     0.329 C 
ENDROOT
BRANCH   1   2
ATOM      2  C   UNL     1      59.034  24.831  29.494  1.00  0.00     0.258 C 
ATOM      3  N   UNL     1      59.311  24.054  28.240  1.00  0.00    -0.347 N 
ATOM      4  O   UNL     1      59.194  24.175  30.833  1.00  0.00    -0.271 OA
ATOM      5  H   UNL     1      59.204  24.491  27.348  1.00  0.00     0.163 HD
BRANCH   3   6
ATOM      6  C   UNL     1      59.747  22.621  28.327  1.00  0.00     0.177 C 
BRANCH   6   7
ATOM      7  C   UNL     1      59.161  21.601  27.397  1.00  0.00     0.280 C 
BRANCH   7   8
ATOM      8  N   UNL     1      59.230  20.143  27.743  1.00  0.00    -0.356 N 
ATOM      9  H   UNL     1      59.696  20.031  28.620  1.00  0.00     0.344 HD
ATOM     10  H   UNL     1      58.867  19.399  27.183  1.00  0.00     0.344 HD
ATOM     11  H   UNL     1      59.341  19.211  28.088  1.00  0.00     0.344 HD
ENDBRANCH   7   8
ENDBRANCH   6   7
ENDBRANCH   3   6
ENDBRANCH   1   2
BRANCH   1  12
ATOM     12  O   UNL     1      57.759  26.860  30.499  1.00  0.00    -0.484 OA
BRANCH  12  13
ATOM     13  C   UNL     1      56.462  26.213  30.886  1.00  0.00     0.120 A 
ATOM     14  C   UNL     1      56.282  25.665  32.271  1.00  0.00     0.047 A 
ATOM     15  C   UNL     1      55.346  26.116  29.889  1.00  0.00     0.047 A 
ATOM     16  C   UNL     1      54.985  25.018  32.658  1.00  0.00     0.016 A 
ATOM     17  C   UNL     1      54.049  25.470  30.276  1.00  0.00     0.016 A 
ATOM     18  C   UNL     1      53.869  24.921  31.661  1.00  0.00     0.018 A 
BRANCH  18  19
ATOM     19  C   UNL     1      52.571  24.275  32.048  1.00  0.00     0.140 A 
ATOM     20  N   UNL     1      51.212  24.651  31.534  1.00  0.00    -0.210 NA
ATOM     21  N   UNL     1      52.404  23.140  33.015  1.00  0.00    -0.332 N 
ATOM     22  C   UNL     1      50.206  23.748  32.184  1.00  0.00     0.168 A 
ATOM     23  C   UNL     1      50.942  22.815  33.099  1.00  0.00     0.150 A 
ATOM     24  N   UNL     1      48.714  23.656  32.061  1.00  0.00    -0.276 N 
ATOM     25  C   UNL     1      50.186  21.789  33.891  1.00  0.00     0.282 A 
ATOM     26  C   UNL     1      47.957  22.630  32.852  1.00  0.00     0.332 A 
ATOM     27  O   UNL     1      50.923  20.856  34.805  1.00  0.00    -0.267 OA
ATOM     28  N   UNL     1      48.694  21.697  33.767  1.00  0.00    -0.258 N 
ATOM     29  O   UNL     1      46.466  22.537  32.730  1.00  0.00    -0.247 OA
ATOM     30  H   UNL     1      53.138  22.682  33.515  1.00  0.00     0.168 HD
BRANCH  24  31
ATOM     31  C   UNL     1      47.977  24.589  31.146  1.00  0.00     0.129 C 
BRANCH  31  32
ATOM     32  C   UNL     1      47.793  24.232  29.701  1.00  0.00     0.019 C 
ATOM     33  C   UNL     1      46.697  23.291  29.295  1.00  0.00     0.006 C 
ENDBRANCH  31  32
ENDBRANCH  24  31
BRANCH  28  34
ATOM     34  C   UNL     1      47.939  20.671  34.559  1.00  0.00     0.131 C 
BRANCH  34  35
ATOM     35  C   UNL     1      47.207  21.074  35.805  1.00  0.00     0.019 C 
ATOM     36  C   UNL     1      47.960  21.265  37.089  1.00  0.00     0.006 C 
ENDBRANCH  34  35
ENDBRANCH  28  34
ENDBRANCH  18  19
ENDBRANCH  12  13
ENDBRANCH   1  12
TORSDOF 11
ENDMDL
MODEL 2
REMARK minimizedAffinity -6.49522495
REMARK CNNscore 0.547291577
REMARK CNNaffinity 6.62803173
REMARK SMILES CCCn1c(=O)c2[nH]c(-c3ccc(OCC(=O)NCC[NH3+])cc3)nc2n(CCC)c1=O
REMARK SMILES IDX 15 1 16 2 18 3 17 4 19 6 20 7 21 8 14 12 13 13 12 14 22 15
REMARK SMILES IDX 11 16 23 17 10 18 9 19 24 20 8 21 25 22 7 23 26 24 5 25
REMARK SMILES IDX 30 26 6 27 4 28 31 29 27 31 28 32 29 33 3 34 2 35 1 36
REMARK H PARENT 18 5 21 9 21 10 21 11 8 30
REMARK INDEX MAP 7 1 5 2 4 3 6 4 39 5 3 6 1 7 2 8 34 9 35 10 36 11 8 12 9 13
REMARK INDEX MAP 10 14 11 15 12 16 13 17 14 18 15 19 16 20 17 21 18 22 19 23
REMARK INDEX MAP 20 24 21 25 22 26 24 27 25 28 26 29 46 30 23 31 27 32 29 33
REMARK INDEX MAP 28 34 30 35 31 36
ROOT
ATOM      1  C   UNL     1      56.424  27.464  33.141  1.00  0.00     0.329 C 
ENDROOT
BRANCH   1   2
ATOM      2  C   UNL     1      57.342  27.307  34.315  1.00  0.00     0.258 C 
ATOM      3  N   UNL     1      57.112  28.109  35.562  1.00  0.00    -0.347 N 
ATOM      4  O   UNL     1      58.493  26.346  34.244  1.00  0.00    -0.271 OA
ATOM      5  H   UNL     1      56.345  28.749  35.609  1.00  0.00     0.163 HD
BRANCH   3   6
ATOM      6  C   UNL     1      58.032  27.952  36.736  1.00  0.00     0.177 C 
BRANCH   6   7
ATOM      7  C   UNL     1      58.656  29.161  37.366  1.00  0.00     0.280 C 
BRANCH   7   8
ATOM      8  N   UNL     1      58.685  30.463  36.623  1.00  0.00    -0.356 N 
ATOM      9  H   UNL     1      58.248  30.348  35.731  1.00  0.00     0.344 HD
ATOM     10  H   UNL     1      59.080  31.316  36.966  1.00  0.00     0.344 HD
ATOM     11  H   UNL     1      58.639  31.264  36.026  1.00  0.00     0.344 HD
ENDBRANCH   7   8
ENDBRANCH   6   7
ENDBRANCH   3   6
ENDBRANCH   1   2
BRANCH   1  12
ATOM     12  O   UNL     1      56.139  26.292  32.248  1.00  0.00    -0.484 OA
BRANCH  12  13
ATOM     13  C   UNL     1      54.746  25.745  32.149  1.00  0.00     0.120 A 
ATOM     14  C   UNL     1      53.885  26.095  30.971  1.00  0.00     0.047 A 
ATOM     15  C   UNL     1      54.214  24.849  33.228  1.00  0.00     0.047 A 
ATOM     16  C   UNL     1      52.492  25.548  30.872  1.00  0.00     0.016 A 
ATOM     17  C   UNL     1      52.820  24.302  33.128  1.00  0.00     0.016 A 
ATOM     18  C   UNL     1      51.960  24.652  31.950  1.00  0.00     0.018 A 
BRANCH  18  19
ATOM     19  C   UNL     1      50.566  24.105  31.852  1.00  0.00     0.140 A 
ATOM     20  N   UNL     1      49.660  24.211  30.662  1.00  0.00    -0.210 NA
ATOM     21  N   UNL     1      49.835  23.355  32.926  1.00  0.00    -0.332 N 
ATOM     22  C   UNL     1      48.368  23.528  31.000  1.00  0.00     0.168 A 
ATOM     23  C   UNL     1      48.476  22.999  32.399  1.00  0.00     0.150 A 
ATOM     24  N   UNL     1      47.108  23.319  30.214  1.00  0.00    -0.276 N 
ATOM     25  C   UNL     1      47.324  22.260  33.013  1.00  0.00     0.282 A 
ATOM     26  C   UNL     1      45.955  22.580  30.828  1.00  0.00     0.332 A 
ATOM     27  O   UNL     1      47.433  21.731  34.413  1.00  0.00    -0.267 OA
ATOM     28  N   UNL     1      46.063  22.051  32.227  1.00  0.00    -0.258 N 
ATOM     29  O   UNL     1      44.694  22.371  30.043  1.00  0.00    -0.247 OA
ATOM     30  H   UNL     1      50.190  23.132  33.833  1.00  0.00     0.168 HD
BRANCH  24  31
ATOM     31  C   UNL     1      46.999  23.848  28.815  1.00  0.00     0.129 C 
BRANCH  31  32
ATOM     32  C   UNL     1      46.162  25.060  28.534  1.00  0.00     0.019 C 
ATOM     33  C   UNL     1      44.811  24.908  27.900  1.00  0.00     0.006 C 
ENDBRANCH  31  32
ENDBRANCH  24  31
BRANCH  28  34
ATOM     34  C   UNL     1      44.911  21.313  32.842  1.00  0.00     0.131 C 
BRANCH  34  35
ATOM     35  C   UNL     1      43.866  22.061  33.615  1.00  0.00     0.019 C 
ATOM     36  C   UNL     1      43.251  23.302  33.037  1.00  0.00     0.006 C 
ENDBRANCH  34  35
ENDBRANCH  28  34
ENDBRANCH  18  19
ENDBRANCH  12  13
ENDBRANCH   1  12
TORSDOF 11
ENDMDL
MODEL 3
REMARK minimizedAffinity -6.47980595
REMARK CNNscore 0.513123333
REMARK CNNaffinity 6.67420769
REMARK SMILES CCCn1c(=O)c2[nH]c(-c3ccc(OCC(=O)NCC[NH3+])cc3)nc2n(CCC)c1=O
REMARK SMILES IDX 15 1 16 2 18 3 17 4 19 6 20 7 21 8 14 12 13 13 12 14 22 15
REMARK SMILES IDX 11 16 23 17 10 18 9 19 24 20 8 21 25 22 7 23 26 24 5 25
REMARK SMILES IDX 30 26 6 27 4 28 31 29 27 31 28 32 29 33 3 34 2 35 1 36
REMARK H PARENT 18 5 21 9 21 10 21 11 8 30
REMARK INDEX MAP 7 1 5 2 4 3 6 4 39 5 3 6 1 7 2 8 34 9 35 10 36 11 8 12 9 13
REMARK INDEX MAP 10 14 11 15 12 16 13 17 14 18 15 19 16 20 17 21 18 22 19 23
REMARK INDEX MAP 20 24 21 25 22 26 24 27 25 28 26 29 46 30 23 31 27 32 29 33
REMARK INDEX MAP 28 34 30 35 31 36
ROOT
ATOM      1  C   UNL     1      56.906  26.698  30.967  1.00  0.00     0.329 C 
ENDROOT
BRANCH   1   2
ATOM      2  C   UNL     1      57.709  25.918  29.970  1.00  0.00     0.258 C 
ATOM      3  N   UNL     1      57.437  24.457  29.766  1.00  0.00    -0.347 N 
ATOM      4  O   UNL     1      58.785  26.598  29.176  1.00  0.00    -0.271 OA
ATOM      5  H   UNL     1      56.720  24.003  30.295  1.00  0.00     0.163 HD
BRANCH   3   6
ATOM      6  C   UNL     1      58.241  23.676  28.768  1.00  0.00     0.177 C 
BRANCH   6   7
ATOM      7  C   UNL     1      57.870  23.712  27.315  1.00  0.00     0.280 C 
BRANCH   7   8
ATOM      8  N   UNL     1      57.392  22.465  26.633  1.00  0.00    -0.356 N 
ATOM      9  H   UNL     1      57.381  21.709  27.288  1.00  0.00     0.344 HD
ATOM     10  H   UNL     1      57.125  22.399  25.671  1.00  0.00     0.344 HD
ATOM     11  H   UNL     1      57.090  21.572  26.300  1.00  0.00     0.344 HD
ENDBRANCH   7   8
ENDBRANCH   6   7
ENDBRANCH   3   6
ENDBRANCH   1   2
BRANCH   1  12
ATOM     12  O   UNL     1      56.211  25.989  32.092  1.00  0.00    -0.484 OA
BRANCH  12  13
ATOM     13  C   UNL     1      54.777  25.574  31.944  1.00  0.00     0.120 A 
ATOM     14  C   UNL     1      54.116  25.623  30.598  1.00  0.00     0.047 A 
ATOM     15  C   UNL     1      54.004  25.111  33.143  1.00  0.00     0.047 A 
ATOM     16  C   UNL     1      52.682  25.208  30.451  1.00  0.00     0.016 A 
ATOM     17  C   UNL     1      52.570  24.696  32.996  1.00  0.00     0.016 A 
ATOM     18  C   UNL     1      51.909  24.744  31.650  1.00  0.00     0.018 A 
BRANCH  18  19
ATOM     19  C   UNL     1      50.475  24.329  31.503  1.00  0.00     0.140 A 
ATOM     20  N   UNL     1      49.631  24.494  30.274  1.00  0.00    -0.210 NA
ATOM     21  N   UNL     1      49.633  23.677  32.560  1.00  0.00    -0.332 N 
ATOM     22  C   UNL     1      48.268  23.943  30.571  1.00  0.00     0.168 A 
ATOM     23  C   UNL     1      48.269  23.439  31.983  1.00  0.00     0.150 A 
ATOM     24  N   UNL     1      47.025  23.836  29.737  1.00  0.00    -0.276 N 
ATOM     25  C   UNL     1      47.027  22.827  32.562  1.00  0.00     0.282 A 
ATOM     26  C   UNL     1      45.784  23.225  30.316  1.00  0.00     0.332 A 
ATOM     27  O   UNL     1      47.029  22.322  33.975  1.00  0.00    -0.267 OA
ATOM     28  N   UNL     1      45.785  22.720  31.728  1.00  0.00    -0.258 N 
ATOM     29  O   UNL     1      44.541  23.117  29.482  1.00  0.00    -0.247 OA
ATOM     30  H   UNL     1      49.929  23.443  33.485  1.00  0.00     0.168 HD
BRANCH  24  31
ATOM     31  C   UNL     1      47.024  24.341  28.324  1.00  0.00     0.129 C 
BRANCH  31  32
ATOM     32  C   UNL     1      46.130  25.481  27.936  1.00  0.00     0.019 C 
ATOM     33  C   UNL     1      46.179  26.032  26.542  1.00  0.00     0.006 C 
ENDBRANCH  31  32
ENDBRANCH  24  31
BRANCH  28  34
ATOM     34  C   UNL     1      44.544  22.108  32.308  1.00  0.00     0.131 C 
BRANCH  34  35
ATOM     35  C   UNL     1      43.597  22.949  33.111  1.00  0.00     0.019 C 
ATOM     36  C   UNL     1      42.401  23.570  32.451  1.00  0.00     0.006 C 
ENDBRANCH  34  35
ENDBRANCH  28  34
ENDBRANCH  18  19
ENDBRANCH  12  13
ENDBRANCH   1  12
TORSDOF 11
ENDMDL
MODEL 4
REMARK minimizedAffinity -6.70508146
REMARK CNNscore 0.489086539
REMARK CNNaffinity 6.54667759
REMARK SMILES CCCn1c(=O)c2[nH]c(-c3ccc(OCC(=O)NCC[NH3+])cc3)nc2n(CCC)c1=O
REMARK SMILES IDX 15 1 16 2 18 3 17 4 19 6 20 7 21 8 14 12 13 13 12 14 22 15
REMARK SMILES IDX 11 16 23 17 10 18 9 19 24 20 8 21 25 22 7 23 26 24 5 25
REMARK SMILES IDX 30 26 6 27 4 28 31 29 27 31 28 32 29 33 3 34 2 35 1 36
REMARK H PARENT 18 5 21 9 21 10 21 11 8 30
REMARK INDEX MAP 7 1 5 2 4 3 6 4 39 5 3 6 1 7 2 8 34 9 35 10 36 11 8 12 9 13
REMARK INDEX MAP 10 14 11 15 12 16 13 17 14 18 15 19 16 20 17 21 18 22 19 23
REMARK INDEX MAP 20 24 21 25 22 26 24 27 25 28 26 29 46 30 23 31 27 32 29 33
REMARK INDEX MAP 28 34 30 35 31 36
ROOT
ATOM      1  C   UNL     1      56.906  27.389  33.178  1.00  0.00     0.329 C 
ENDROOT
BRANCH   1   2
ATOM      2  C   UNL     1      57.519  27.500  34.541  1.00  0.00     0.258 C 
ATOM      3  N   UNL     1      57.933  28.842  35.071  1.00  0.00    -0.347 N 
ATOM      4  O   UNL     1      57.719  26.270  35.377  1.00  0.00    -0.271 OA
ATOM      5  H   UNL     1      57.800  29.661  34.514  1.00  0.00     0.163 HD
BRANCH   3   6
ATOM      6  C   UNL     1      58.546  28.953  36.435  1.00  0.00     0.177 C 
BRANCH   6   7
ATOM      7  C   UNL     1      59.561  30.021  36.716  1.00  0.00     0.280 C 
BRANCH   7   8
ATOM      8  N   UNL     1      60.016  30.931  35.613  1.00  0.00    -0.356 N 
ATOM      9  H   UNL     1      59.546  30.688  34.765  1.00  0.00     0.344 HD
ATOM     10  H   UNL     1      60.686  31.666  35.712  1.00  0.00     0.344 HD
ATOM     11  H   UNL     1      60.234  31.466  34.798  1.00  0.00     0.344 HD
ENDBRANCH   7   8
ENDBRANCH   6   7
ENDBRANCH   3   6
ENDBRANCH   1   2
BRANCH   1  12
ATOM     12  O   UNL     1      56.647  26.037  32.579  1.00  0.00    -0.484 OA
BRANCH  12  13
ATOM     13  C   UNL     1      55.279  25.428  32.666  1.00  0.00     0.120 A 
ATOM     14  C   UNL     1      54.841  24.743  33.926  1.00  0.00     0.047 A 
ATOM     15  C   UNL     1      54.349  25.504  31.491  1.00  0.00     0.047 A 
ATOM     16  C   UNL     1      53.473  24.134  34.013  1.00  0.00     0.016 A 
ATOM     17  C   UNL     1      52.980  24.895  31.578  1.00  0.00     0.016 A 
ATOM     18  C   UNL     1      52.543  24.210  32.839  1.00  0.00     0.018 A 
BRANCH  18  19
ATOM     19  C   UNL     1      51.175  23.601  32.925  1.00  0.00     0.140 A 
ATOM     20  N   UNL     1      49.980  24.000  32.110  1.00  0.00    -0.210 NA
ATOM     21  N   UNL     1      50.760  22.487  33.840  1.00  0.00    -0.332 N 
ATOM     22  C   UNL     1      48.828  23.132  32.521  1.00  0.00     0.168 A 
ATOM     23  C   UNL     1      49.310  22.197  33.590  1.00  0.00     0.150 A 
ATOM     24  N   UNL     1      47.402  23.073  32.060  1.00  0.00    -0.276 N 
ATOM     25  C   UNL     1      48.366  21.203  34.199  1.00  0.00     0.282 A 
ATOM     26  C   UNL     1      46.457  22.078  32.668  1.00  0.00     0.332 A 
ATOM     27  O   UNL     1      48.849  20.268  35.269  1.00  0.00    -0.267 OA
ATOM     28  N   UNL     1      46.939  21.143  33.738  1.00  0.00    -0.258 N 
ATOM     29  O   UNL     1      45.031  22.019  32.208  1.00  0.00    -0.247 OA
ATOM     30  H   UNL     1      51.348  22.020  34.500  1.00  0.00     0.168 HD
BRANCH  24  31
ATOM     31  C   UNL     1      46.920  24.008  30.991  1.00  0.00     0.129 C 
BRANCH  31  32
ATOM     32  C   UNL     1      46.958  23.585  29.552  1.00  0.00     0.019 C 
ATOM     33  C   UNL     1      46.138  22.416  29.092  1.00  0.00     0.006 C 
ENDBRANCH  31  32
ENDBRANCH  24  31
BRANCH  28  34
ATOM     34  C   UNL     1      45.996  20.149  34.347  1.00  0.00     0.131 C 
BRANCH  34  35
ATOM     35  C   UNL     1      45.212  19.221  33.467  1.00  0.00     0.019 C 
ATOM     36  C   UNL     1      45.822  17.931  33.005  1.00  0.00     0.006 C 
ENDBRANCH  34  35
ENDBRANCH  28  34
ENDBRANCH  18  19
ENDBRANCH  12  13
ENDBRANCH   1  12
TORSDOF 11
ENDMDL
MODEL 5
REMARK minimizedAffinity -6.77018785
REMARK CNNscore 0.449019521
REMARK CNNaffinity 6.54266644
REMARK SMILES CCCn1c(=O)c2[nH]c(-c3ccc(OCC(=O)NCC[NH3+])cc3)nc2n(CCC)c1=O
REMARK SMILES IDX 15 1 16 2 18 3 17 4 19 6 20 7 21 8 14 12 13 13 12 14 22 15
REMARK SMILES IDX 11 16 23 17 10 18 9 19 24 20 8 21 25 22 7 23 26 24 5 25
REMARK SMILES IDX 30 26 6 27 4 28 31 29 27 31 28 32 29 33 3 34 2 35 1 36
REMARK H PARENT 18 5 21 9 21 10 21 11 8 30
REMARK INDEX MAP 7 1 5 2 4 3 6 4 39 5 3 6 1 7 2 8 34 9 35 10 36 11 8 12 9 13
REMARK INDEX MAP 10 14 11 15 12 16 13 17 14 18 15 19 16 20 17 21 18 22 19 23
REMARK INDEX MAP 20 24 21 25 22 26 24 27 25 28 26 29 46 30 23 31 27 32 29 33
REMARK INDEX MAP 28 34 30 35 31 36
ROOT
ATOM      1  C   UNL     1      56.914  27.091  31.283  1.00  0.00     0.329 C 
ENDROOT
BRANCH   1   2
ATOM      2  C   UNL     1      57.740  26.253  30.355  1.00  0.00     0.258 C 
ATOM      3  N   UNL     1      57.162  25.006  29.754  1.00  0.00    -0.347 N 
ATOM      4  O   UNL     1      59.146  26.660  30.028  1.00  0.00    -0.271 OA
ATOM      5  H   UNL     1      56.224  24.734  29.972  1.00  0.00     0.163 HD
BRANCH   3   6
ATOM      6  C   UNL     1      57.989  24.167  28.825  1.00  0.00     0.177 C 
BRANCH   6   7
ATOM      7  C   UNL     1      57.328  23.398  27.720  1.00  0.00     0.280 C 
BRANCH   7   8
ATOM      8  N   UNL     1      58.062  22.279  27.043  1.00  0.00    -0.356 N 
ATOM      9  H   UNL     1      58.971  22.182  27.449  1.00  0.00     0.344 HD
ATOM     10  H   UNL     1      57.699  21.716  26.300  1.00  0.00     0.344 HD
ATOM     11  H   UNL     1      58.655  21.562  26.677  1.00  0.00     0.344 HD
ENDBRANCH   7   8
ENDBRANCH   6   7
ENDBRANCH   3   6
ENDBRANCH   1   2
BRANCH   1  12
ATOM     12  O   UNL     1      56.415  26.513  32.575  1.00  0.00    -0.484 OA
BRANCH  12  13
ATOM     13  C   UNL     1      55.090  25.811  32.620  1.00  0.00     0.120 A 
ATOM     14  C   UNL     1      54.142  25.922  31.462  1.00  0.00     0.047 A 
ATOM     15  C   UNL     1      54.713  24.999  33.823  1.00  0.00     0.047 A 
ATOM     16  C   UNL     1      52.817  25.220  31.508  1.00  0.00     0.016 A 
ATOM     17  C   UNL     1      53.388  24.297  33.869  1.00  0.00     0.016 A 
ATOM     18  C   UNL     1      52.440  24.408  32.711  1.00  0.00     0.018 A 
BRANCH  18  19
ATOM     19  C   UNL     1      51.116  23.706  32.758  1.00  0.00     0.140 A 
ATOM     20  N   UNL     1      49.906  24.052  31.941  1.00  0.00    -0.210 NA
ATOM     21  N   UNL     1      50.767  22.535  33.629  1.00  0.00    -0.332 N 
ATOM     22  C   UNL     1      48.811  23.094  32.307  1.00  0.00     0.168 A 
ATOM     23  C   UNL     1      49.342  22.157  33.349  1.00  0.00     0.150 A 
ATOM     24  N   UNL     1      47.396  22.956  31.825  1.00  0.00    -0.276 N 
ATOM     25  C   UNL     1      48.461  21.081  33.911  1.00  0.00     0.282 A 
ATOM     26  C   UNL     1      46.515  21.879  32.386  1.00  0.00     0.332 A 
ATOM     27  O   UNL     1      48.995  20.144  34.954  1.00  0.00    -0.267 OA
ATOM     28  N   UNL     1      47.047  20.942  33.429  1.00  0.00    -0.258 N 
ATOM     29  O   UNL     1      45.101  21.740  31.904  1.00  0.00    -0.247 OA
ATOM     30  H   UNL     1      51.378  22.085  34.280  1.00  0.00     0.168 HD
BRANCH  24  31
ATOM     31  C   UNL     1      46.864  23.893  30.781  1.00  0.00     0.129 C 
BRANCH  31  32
ATOM     32  C   UNL     1      46.512  23.376  29.418  1.00  0.00     0.019 C 
ATOM     33  C   UNL     1      45.142  23.614  28.856  1.00  0.00     0.006 C 
ENDBRANCH  31  32
ENDBRANCH  24  31
BRANCH  28  34
ATOM     34  C   UNL     1      46.167  19.865  33.991  1.00  0.00     0.131 C 
BRANCH  34  35
ATOM     35  C   UNL     1      45.967  18.587  33.232  1.00  0.00     0.019 C 
ATOM     36  C   UNL     1      44.654  17.866  33.310  1.00  0.00     0.006 C 
ENDBRANCH  34  35
ENDBRANCH  28  34
ENDBRANCH  18  19
ENDBRANCH  12  13
ENDBRANCH   1  12
TORSDOF 11
ENDMDL
MODEL 6
REMARK minimizedAffinity -6.59176874
REMARK CNNscore 0.430978
REMARK CNNaffinity 6.21869087
REMARK SMILES CCCn1c(=O)c2[nH]c(-c3ccc(OCC(=O)NCC[NH3+])cc3)nc2n(CCC)c1=O
REMARK SMILES IDX 15 1 16 2 18 3 17 4 19 6 20 7 21 8 14 12 13 13 12 14 22 15
REMARK SMILES IDX 11 16 23 17 10 18 9 19 24 20 8 21 25 22 7 23 26 24 5 25
REMARK SMILES IDX 30 26 6 27 4 28 31 29 27 31 28 32 29 33 3 34 2 35 1 36
REMARK H PARENT 18 5 21 9 21 10 21 11 8 30
REMARK INDEX MAP 7 1 5 2 4 3 6 4 39 5 3 6 1 7 2 8 34 9 35 10 36 11 8 12 9 13
REMARK INDEX MAP 10 14 11 15 12 16 13 17 14 18 15 19 16 20 17 21 18 22 19 23
REMARK INDEX MAP 20 24 21 25 22 26 24 27 25 28 26 29 46 30 23 31 27 32 29 33
REMARK INDEX MAP 28 34 30 35 31 36
ROOT
ATOM      1  C   UNL     1      53.500  25.651  44.984  1.00  0.00     0.329 C 
ENDROOT
BRANCH   1   2
ATOM      2  C   UNL     1      54.124  24.301  44.797  1.00  0.00     0.258 C 
ATOM      3  N   UNL     1      55.203  24.108  43.773  1.00  0.00    -0.347 N 
ATOM      4  O   UNL     1      53.670  23.142  45.635  1.00  0.00    -0.271 OA
ATOM      5  H   UNL     1      55.506  24.880  43.215  1.00  0.00     0.163 HD
BRANCH   3   6
ATOM      6  C   UNL     1      55.828  22.757  43.587  1.00  0.00     0.177 C 
BRANCH   6   7
ATOM      7  C   UNL     1      56.941  22.315  44.489  1.00  0.00     0.280 C 
BRANCH   7   8
ATOM      8  N   UNL     1      57.623  23.310  45.381  1.00  0.00    -0.356 N 
ATOM      9  H   UNL     1      57.214  24.212  45.247  1.00  0.00     0.344 HD
ATOM     10  H   UNL     1      58.371  23.103  46.012  1.00  0.00     0.344 HD
ATOM     11  H   UNL     1      57.991  24.066  45.921  1.00  0.00     0.344 HD
ENDBRANCH   7   8
ENDBRANCH   6   7
ENDBRANCH   3   6
ENDBRANCH   1   2
BRANCH   1  12
ATOM     12  O   UNL     1      52.092  25.897  44.526  1.00  0.00    -0.484 OA
BRANCH  12  13
ATOM     13  C   UNL     1      51.581  25.232  43.282  1.00  0.00     0.120 A 
ATOM     14  C   UNL     1      52.280  25.452  41.973  1.00  0.00     0.047 A 
ATOM     15  C   UNL     1      50.371  24.349  43.348  1.00  0.00     0.047 A 
ATOM     16  C   UNL     1      51.768  24.786  40.729  1.00  0.00     0.016 A 
ATOM     17  C   UNL     1      49.860  23.683  42.105  1.00  0.00     0.016 A 
ATOM     18  C   UNL     1      50.559  23.903  40.795  1.00  0.00     0.018 A 
BRANCH  18  19
ATOM     19  C   UNL     1      50.046  23.237  39.552  1.00  0.00     0.140 A 
ATOM     20  N   UNL     1      50.848  22.935  38.320  1.00  0.00    -0.210 NA
ATOM     21  N   UNL     1      48.644  22.756  39.322  1.00  0.00    -0.332 N 
ATOM     22  C   UNL     1      49.940  22.269  37.329  1.00  0.00     0.168 A 
ATOM     23  C   UNL     1      48.579  22.158  37.948  1.00  0.00     0.150 A 
ATOM     24  N   UNL     1      50.179  21.748  35.943  1.00  0.00    -0.276 N 
ATOM     25  C   UNL     1      47.455  21.526  37.181  1.00  0.00     0.282 A 
ATOM     26  C   UNL     1      49.055  21.116  35.175  1.00  0.00     0.332 A 
ATOM     27  O   UNL     1      46.093  21.416  37.801  1.00  0.00    -0.267 OA
ATOM     28  N   UNL     1      47.693  21.005  35.794  1.00  0.00    -0.258 N 
ATOM     29  O   UNL     1      49.293  20.595  33.789  1.00  0.00    -0.247 OA
ATOM     30  H   UNL     1      47.886  22.824  39.971  1.00  0.00     0.168 HD
BRANCH  24  31
ATOM     31  C   UNL     1      51.541  21.858  35.324  1.00  0.00     0.129 C 
BRANCH  31  32
ATOM     32  C   UNL     1      51.862  23.012  34.421  1.00  0.00     0.019 C 
ATOM     33  C   UNL     1      52.814  24.078  34.875  1.00  0.00     0.006 C 
ENDBRANCH  31  32
ENDBRANCH  24  31
BRANCH  28  34
ATOM     34  C   UNL     1      46.569  20.374  35.028  1.00  0.00     0.131 C 
BRANCH  34  35
ATOM     35  C   UNL     1      45.820  21.171  34.001  1.00  0.00     0.019 C 
ATOM     36  C   UNL     1      44.330  21.037  33.888  1.00  0.00     0.006 C 
ENDBRANCH  34  35
ENDBRANCH  28  34
ENDBRANCH  18  19
ENDBRANCH  12  13
ENDBRANCH   1  12
TORSDOF 11
ENDMDL
MODEL 7
REMARK minimizedAffinity -6.8030014
REMARK CNNscore 0.39954564
REMARK CNNaffinity 6.59654903
REMARK SMILES CCCn1c(=O)c2[nH]c(-c3ccc(OCC(=O)NCC[NH3+])cc3)nc2n(CCC)c1=O
REMARK SMILES IDX 15 1 16 2 18 3 17 4 19 6 20 7 21 8 14 12 13 13 12 14 22 15
REMARK SMILES IDX 11 16 23 17 10 18 9 19 24 20 8 21 25 22 7 23 26 24 5 25
REMARK SMILES IDX 30 26 6 27 4 28 31 29 27 31 28 32 29 33 3 34 2 35 1 36
REMARK H PARENT 18 5 21 9 21 10 21 11 8 30
REMARK INDEX MAP 7 1 5 2 4 3 6 4 39 5 3 6 1 7 2 8 34 9 35 10 36 11 8 12 9 13
REMARK INDEX MAP 10 14 11 15 12 16 13 17 14 18 15 19 16 20 17 21 18 22 19 23
REMARK INDEX MAP 20 24 21 25 22 26 24 27 25 28 26 29 46 30 23 31 27 32 29 33
REMARK INDEX MAP 28 34 30 35 31 36
ROOT
ATOM      1  C   UNL     1      57.027  26.959  31.152  1.00  0.00     0.329 C 
ENDROOT
BRANCH   1   2
ATOM      2  C   UNL     1      57.996  26.011  30.510  1.00  0.00     0.258 C 
ATOM      3  N   UNL     1      57.858  24.533  30.730  1.00  0.00    -0.347 N 
ATOM      4  O   UNL     1      59.104  26.541  29.648  1.00  0.00    -0.271 OA
ATOM      5  H   UNL     1      57.120  24.180  31.305  1.00  0.00     0.163 HD
BRANCH   3   6
ATOM      6  C   UNL     1      58.828  23.586  30.088  1.00  0.00     0.177 C 
BRANCH   6   7
ATOM      7  C   UNL     1      58.447  22.861  28.832  1.00  0.00     0.280 C 
BRANCH   7   8
ATOM      8  N   UNL     1      58.771  21.404  28.680  1.00  0.00    -0.356 N 
ATOM      9  H   UNL     1      59.237  21.078  29.503  1.00  0.00     0.344 HD
ATOM     10  H   UNL     1      58.555  20.844  27.880  1.00  0.00     0.344 HD
ATOM     11  H   UNL     1      59.042  20.442  28.704  1.00  0.00     0.344 HD
ENDBRANCH   7   8
ENDBRANCH   6   7
ENDBRANCH   3   6
ENDBRANCH   1   2
BRANCH   1  12
ATOM     12  O   UNL     1      56.385  26.604  32.460  1.00  0.00    -0.484 OA
BRANCH  12  13
ATOM     13  C   UNL     1      55.033  25.954  32.481  1.00  0.00     0.120 A 
ATOM     14  C   UNL     1      54.156  26.010  31.265  1.00  0.00     0.047 A 
ATOM     15  C   UNL     1      54.559  25.249  33.717  1.00  0.00     0.047 A 
ATOM     16  C   UNL     1      52.804  25.360  31.285  1.00  0.00     0.016 A 
ATOM     17  C   UNL     1      53.207  24.599  33.737  1.00  0.00     0.016 A 
ATOM     18  C   UNL     1      52.330  24.655  32.521  1.00  0.00     0.018 A 
BRANCH  18  19
ATOM     19  C   UNL     1      50.978  24.005  32.542  1.00  0.00     0.140 A 
ATOM     20  N   UNL     1      50.535  22.923  33.483  1.00  0.00    -0.210 NA
ATOM     21  N   UNL     1      49.831  24.321  31.627  1.00  0.00    -0.332 N 
ATOM     22  C   UNL     1      49.115  22.572  33.149  1.00  0.00     0.168 A 
ATOM     23  C   UNL     1      48.681  23.435  32.003  1.00  0.00     0.150 A 
ATOM     24  N   UNL     1      48.162  21.577  33.742  1.00  0.00    -0.276 N 
ATOM     25  C   UNL     1      47.293  23.304  31.448  1.00  0.00     0.282 A 
ATOM     26  C   UNL     1      46.774  21.445  33.188  1.00  0.00     0.332 A 
ATOM     27  O   UNL     1      46.859  24.168  30.301  1.00  0.00    -0.267 OA
ATOM     28  N   UNL     1      46.340  22.309  32.041  1.00  0.00    -0.258 N 
ATOM     29  O   UNL     1      45.821  20.450  33.780  1.00  0.00    -0.247 OA
ATOM     30  H   UNL     1      49.835  25.003  30.896  1.00  0.00     0.168 HD
BRANCH  24  31
ATOM     31  C   UNL     1      48.596  20.713  34.889  1.00  0.00     0.129 C 
BRANCH  31  32
ATOM     32  C   UNL     1      48.588  21.261  36.285  1.00  0.00     0.019 C 
ATOM     33  C   UNL     1      47.321  21.248  37.088  1.00  0.00     0.006 C 
ENDBRANCH  31  32
ENDBRANCH  24  31
BRANCH  28  34
ATOM     34  C   UNL     1      44.953  22.178  31.486  1.00  0.00     0.131 C 
BRANCH  34  35
ATOM     35  C   UNL     1      44.696  22.453  30.034  1.00  0.00     0.019 C 
ATOM     36  C   UNL     1      43.500  23.261  29.623  1.00  0.00     0.006 C 
ENDBRANCH  34  35
ENDBRANCH  28  34
ENDBRANCH  18  19
ENDBRANCH  12  13
ENDBRANCH   1  12
TORSDOF 11
ENDMDL
MODEL 8
REMARK minimizedAffinity -6.70179701
REMARK CNNscore 0.320522964
REMARK CNNaffinity 6.43110466
REMARK SMILES CCCn1c(=O)c2[nH]c(-c3ccc(OCC(=O)NCC[NH3+])cc3)nc2n(CCC)c1=O
REMARK SMILES IDX 15 1 16 2 18 3 17 4 19 6 20 7 21 8 14 12 13 13 12 14 22 15
REMARK SMILES IDX 11 16 23 17 10 18 9 19 24 20 8 21 25 22 7 23 26 24 5 25
REMARK SMILES IDX 30 26 6 27 4 28 31 29 27 31 28 32 29 33 3 34 2 35 1 36
REMARK H PARENT 18 5 21 9 21 10 21 11 8 30
REMARK INDEX MAP 7 1 5 2 4 3 6 4 39 5 3 6 1 7 2 8 34 9 35 10 36 11 8 12 9 13
REMARK INDEX MAP 10 14 11 15 12 16 13 17 14 18 15 19 16 20 17 21 18 22 19 23
REMARK INDEX MAP 20 24 21 25 22 26 24 27 25 28 26 29 46 30 23 31 27 32 29 33
REMARK INDEX MAP 28 34 30 35 31 36
ROOT
ATOM      1  C   UNL     1      57.667  26.632  30.940  1.00  0.00     0.329 C 
ENDROOT
BRANCH   1   2
ATOM      2  C   UNL     1      58.151  25.886  29.733  1.00  0.00     0.258 C 
ATOM      3  N   UNL     1      57.818  24.433  29.565  1.00  0.00    -0.347 N 
ATOM      4  O   UNL     1      58.969  26.593  28.692  1.00  0.00    -0.271 OA
ATOM      5  H   UNL     1      57.273  23.962  30.258  1.00  0.00     0.163 HD
BRANCH   3   6
ATOM      6  C   UNL     1      58.303  23.687  28.357  1.00  0.00     0.177 C 
BRANCH   6   7
ATOM      7  C   UNL     1      57.523  23.747  27.077  1.00  0.00     0.280 C 
BRANCH   7   8
ATOM      8  N   UNL     1      56.984  22.486  26.468  1.00  0.00    -0.356 N 
ATOM      9  H   UNL     1      57.234  21.706  27.041  1.00  0.00     0.344 HD
ATOM     10  H   UNL     1      56.456  22.435  25.621  1.00  0.00     0.344 HD
ATOM     11  H   UNL     1      56.682  21.582  26.169  1.00  0.00     0.344 HD
ENDBRANCH   7   8
ENDBRANCH   6   7
ENDBRANCH   3   6
ENDBRANCH   1   2
BRANCH   1  12
ATOM     12  O   UNL     1      56.292  27.231  30.951  1.00  0.00    -0.484 OA
BRANCH  12  13
ATOM     13  C   UNL     1      55.124  26.420  31.429  1.00  0.00     0.120 A 
ATOM     14  C   UNL     1      55.146  25.809  32.799  1.00  0.00     0.047 A 
ATOM     15  C   UNL     1      53.935  26.220  30.537  1.00  0.00     0.047 A 
ATOM     16  C   UNL     1      53.978  24.998  33.277  1.00  0.00     0.016 A 
ATOM     17  C   UNL     1      52.767  25.409  31.014  1.00  0.00     0.016 A 
ATOM     18  C   UNL     1      52.789  24.798  32.385  1.00  0.00     0.018 A 
BRANCH  18  19
ATOM     19  C   UNL     1      51.621  23.987  32.861  1.00  0.00     0.140 A 
ATOM     20  N   UNL     1      51.512  23.293  34.187  1.00  0.00    -0.210 NA
ATOM     21  N   UNL     1      50.355  23.727  32.098  1.00  0.00    -0.332 N 
ATOM     22  C   UNL     1      50.181  22.604  34.242  1.00  0.00     0.168 A 
ATOM     23  C   UNL     1      49.466  22.873  32.952  1.00  0.00     0.150 A 
ATOM     24  N   UNL     1      49.527  21.768  35.302  1.00  0.00    -0.276 N 
ATOM     25  C   UNL     1      48.097  22.305  32.719  1.00  0.00     0.282 A 
ATOM     26  C   UNL     1      48.158  21.199  35.070  1.00  0.00     0.332 A 
ATOM     27  O   UNL     1      47.383  22.574  31.427  1.00  0.00    -0.267 OA
ATOM     28  N   UNL     1      47.443  21.468  33.779  1.00  0.00    -0.258 N 
ATOM     29  O   UNL     1      47.503  20.363  36.129  1.00  0.00    -0.247 OA
ATOM     30  H   UNL     1      50.143  24.065  31.181  1.00  0.00     0.168 HD
BRANCH  24  31
ATOM     31  C   UNL     1      50.241  21.499  36.593  1.00  0.00     0.129 C 
BRANCH  31  32
ATOM     32  C   UNL     1      50.056  22.424  37.759  1.00  0.00     0.019 C 
ATOM     33  C   UNL     1      50.787  23.734  37.801  1.00  0.00     0.006 C 
ENDBRANCH  31  32
ENDBRANCH  24  31
BRANCH  28  34
ATOM     34  C   UNL     1      46.074  20.900  33.546  1.00  0.00     0.131 C 
BRANCH  34  35
ATOM     35  C   UNL     1      45.917  19.473  33.111  1.00  0.00     0.019 C 
ATOM     36  C   UNL     1      47.064  18.757  32.460  1.00  0.00     0.006 C 
ENDBRANCH  34  35
ENDBRANCH  28  34
ENDBRANCH  18  19
ENDBRANCH  12  13
ENDBRANCH   1  12
TORSDOF 11
ENDMDL
MODEL 9
REMARK minimizedAffinity -6.602911
REMARK CNNscore 0.30722788
REMARK CNNaffinity 6.57308102
REMARK SMILES CCCn1c(=O)c2[nH]c(-c3ccc(OCC(=O)NCC[NH3+])cc3)nc2n(CCC)c1=O
REMARK SMILES IDX 15 1 16 2 18 3 17 4 19 6 20 7 21 8 14 12 13 13 12 14 22 15
REMARK SMILES IDX 11 16 23 17 10 18 9 19 24 20 8 21 25 22 7 23 26 24 5 25
REMARK SMILES IDX 30 26 6 27 4 28 31 29 27 31 28 32 29 33 3 34 2 35 1 36
REMARK H PARENT 18 5 21 9 21 10 21 11 8 30
REMARK INDEX MAP 7 1 5 2 4 3 6 4 39 5 3 6 1 7 2 8 34 9 35 10 36 11 8 12 9 13
REMARK INDEX MAP 10 14 11 15 12 16 13 17 14 18 15 19 16 20 17 21 18 22 19 23
REMARK INDEX MAP 20 24 21 25 22 26 24 27 25 28 26 29 46 30 23 31 27 32 29 33
REMARK INDEX MAP 28 34 30 35 31 36
ROOT
ATOM      1  C   UNL     1      57.479  24.912  30.388  1.00  0.00     0.329 C 
ENDROOT
BRANCH   1   2
ATOM      2  C   UNL     1      57.983  24.929  28.976  1.00  0.00     0.258 C 
ATOM      3  N   UNL     1      58.745  26.117  28.466  1.00  0.00    -0.347 N 
ATOM      4  O   UNL     1      57.725  23.759  28.073  1.00  0.00    -0.271 OA
ATOM      5  H   UNL     1      58.917  26.896  29.068  1.00  0.00     0.163 HD
BRANCH   3   6
ATOM      6  C   UNL     1      59.249  26.134  27.053  1.00  0.00     0.177 C 
BRANCH   6   7
ATOM      7  C   UNL     1      58.418  26.752  25.968  1.00  0.00     0.280 C 
BRANCH   7   8
ATOM      8  N   UNL     1      58.856  28.036  25.329  1.00  0.00    -0.356 N 
ATOM      9  H   UNL     1      59.715  28.339  25.742  1.00  0.00     0.344 HD
ATOM     10  H   UNL     1      58.364  28.516  24.602  1.00  0.00     0.344 HD
ATOM     11  H   UNL     1      59.255  28.887  24.987  1.00  0.00     0.344 HD
ENDBRANCH   7   8
ENDBRANCH   6   7
ENDBRANCH   3   6
ENDBRANCH   1   2
BRANCH   1  12
ATOM     12  O   UNL     1      56.381  25.846  30.806  1.00  0.00    -0.484 OA
BRANCH  12  13
ATOM     13  C   UNL     1      55.023  25.305  31.141  1.00  0.00     0.120 A 
ATOM     14  C   UNL     1      53.992  25.147  30.063  1.00  0.00     0.047 A 
ATOM     15  C   UNL     1      54.696  24.924  32.554  1.00  0.00     0.047 A 
ATOM     16  C   UNL     1      52.633  24.606  30.398  1.00  0.00     0.016 A 
ATOM     17  C   UNL     1      53.338  24.383  32.890  1.00  0.00     0.016 A 
ATOM     18  C   UNL     1      52.306  24.225  31.812  1.00  0.00     0.018 A 
BRANCH  18  19
ATOM     19  C   UNL     1      50.948  23.684  32.148  1.00  0.00     0.140 A 
ATOM     20  N   UNL     1      50.631  22.724  33.257  1.00  0.00    -0.210 NA
ATOM     21  N   UNL     1      49.668  24.007  31.436  1.00  0.00    -0.332 N 
ATOM     22  C   UNL     1      49.156  22.455  33.229  1.00  0.00     0.168 A 
ATOM     23  C   UNL     1      48.561  23.248  32.104  1.00  0.00     0.150 A 
ATOM     24  N   UNL     1      48.278  21.589  34.084  1.00  0.00    -0.276 N 
ATOM     25  C   UNL     1      47.087  23.176  31.833  1.00  0.00     0.282 A 
ATOM     26  C   UNL     1      46.804  21.517  33.813  1.00  0.00     0.332 A 
ATOM     27  O   UNL     1      46.492  23.969  30.707  1.00  0.00    -0.267 OA
ATOM     28  N   UNL     1      46.209  22.310  32.688  1.00  0.00    -0.258 N 
ATOM     29  O   UNL     1      45.926  20.652  34.667  1.00  0.00    -0.247 OA
ATOM     30  H   UNL     1      49.571  24.622  30.653  1.00  0.00     0.168 HD
BRANCH  24  31
ATOM     31  C   UNL     1      48.873  20.796  35.209  1.00  0.00     0.129 C 
BRANCH  31  32
ATOM     32  C   UNL     1      48.968  21.396  36.581  1.00  0.00     0.019 C 
ATOM     33  C   UNL     1      47.758  21.442  37.465  1.00  0.00     0.006 C 
ENDBRANCH  31  32
ENDBRANCH  24  31
BRANCH  28  34
ATOM     34  C   UNL     1      44.735  22.239  32.416  1.00  0.00     0.131 C 
BRANCH  34  35
ATOM     35  C   UNL     1      43.806  23.234  33.047  1.00  0.00     0.019 C 
ATOM     36  C   UNL     1      42.438  23.451  32.472  1.00  0.00     0.006 C 
ENDBRANCH  34  35
ENDBRANCH  28  34
ENDBRANCH  18  19
ENDBRANCH  12  13
ENDBRANCH   1  12
TORSDOF 11
ENDMDL
MODEL 10
REMARK minimizedAffinity -6.75346851
REMARK CNNscore 0.305571377
REMARK CNNaffinity 6.62948227
REMARK SMILES CCCn1c(=O)c2[nH]c(-c3ccc(OCC(=O)NCC[NH3+])cc3)nc2n(CCC)c1=O
REMARK SMILES IDX 15 1 16 2 18 3 17 4 19 6 20 7 21 8 14 12 13 13 12 14 22 15
REMARK SMILES IDX 11 16 23 17 10 18 9 19 24 20 8 21 25 22 7 23 26 24 5 25
REMARK SMILES IDX 30 26 6 27 4 28 31 29 27 31 28 32 29 33 3 34 2 35 1 36
REMARK H PARENT 18 5 21 9 21 10 21 11 8 30
REMARK INDEX MAP 7 1 5 2 4 3 6 4 39 5 3 6 1 7 2 8 34 9 35 10 36 11 8 12 9 13
REMARK INDEX MAP 10 14 11 15 12 16 13 17 14 18 15 19 16 20 17 21 18 22 19 23
REMARK INDEX MAP 20 24 21 25 22 26 24 27 25 28 26 29 46 30 23 31 27 32 29 33
REMARK INDEX MAP 28 34 30 35 31 36
ROOT
ATOM      1  C   UNL     1      54.197  21.635  39.432  1.00  0.00     0.329 C 
ENDROOT
BRANCH   1   2
ATOM      2  C   UNL     1      55.475  21.055  38.905  1.00  0.00     0.258 C 
ATOM      3  N   UNL     1      55.826  19.625  39.194  1.00  0.00    -0.347 N 
ATOM      4  O   UNL     1      56.403  21.904  38.087  1.00  0.00    -0.271 OA
ATOM      5  H   UNL     1      55.207  19.059  39.739  1.00  0.00     0.163 HD
BRANCH   3   6
ATOM      6  C   UNL     1      57.105  19.045  38.666  1.00  0.00     0.177 C 
BRANCH   6   7
ATOM      7  C   UNL     1      57.234  18.720  37.208  1.00  0.00     0.280 C 
BRANCH   7   8
ATOM      8  N   UNL     1      57.719  19.765  36.247  1.00  0.00    -0.356 N 
ATOM      9  H   UNL     1      57.908  20.612  36.744  1.00  0.00     0.344 HD
ATOM     10  H   UNL     1      57.834  19.635  35.263  1.00  0.00     0.344 HD
ATOM     11  H   UNL     1      58.050  20.545  35.716  1.00  0.00     0.344 HD
ENDBRANCH   7   8
ENDBRANCH   6   7
ENDBRANCH   3   6
ENDBRANCH   1   2
BRANCH   1  12
ATOM     12  O   UNL     1      53.626  22.877  38.815  1.00  0.00    -0.484 OA
BRANCH  12  13
ATOM     13  C   UNL     1      52.673  22.772  37.661  1.00  0.00     0.120 A 
ATOM     14  C   UNL     1      53.117  23.165  36.284  1.00  0.00     0.047 A 
ATOM     15  C   UNL     1      51.276  22.272  37.886  1.00  0.00     0.047 A 
ATOM     16  C   UNL     1      52.164  23.060  35.130  1.00  0.00     0.016 A 
ATOM     17  C   UNL     1      50.323  22.166  36.732  1.00  0.00     0.016 A 
ATOM     18  C   UNL     1      50.767  22.560  35.355  1.00  0.00     0.018 A 
BRANCH  18  19
ATOM     19  C   UNL     1      49.814  22.454  34.201  1.00  0.00     0.140 A 
ATOM     20  N   UNL     1      48.987  21.253  33.849  1.00  0.00    -0.210 NA
ATOM     21  N   UNL     1      49.518  23.530  33.198  1.00  0.00    -0.332 N 
ATOM     22  C   UNL     1      48.182  21.586  32.628  1.00  0.00     0.168 A 
ATOM     23  C   UNL     1      48.510  22.993  32.226  1.00  0.00     0.150 A 
ATOM     24  N   UNL     1      47.192  20.790  31.831  1.00  0.00    -0.276 N 
ATOM     25  C   UNL     1      47.848  23.605  31.027  1.00  0.00     0.282 A 
ATOM     26  C   UNL     1      46.530  21.401  30.631  1.00  0.00     0.332 A 
ATOM     27  O   UNL     1      48.176  25.013  30.626  1.00  0.00    -0.267 OA
ATOM     28  N   UNL     1      46.858  22.809  30.229  1.00  0.00    -0.258 N 
ATOM     29  O   UNL     1      45.540  20.605  29.834  1.00  0.00    -0.247 OA
ATOM     30  H   UNL     1      49.923  24.444  33.181  1.00  0.00     0.168 HD
BRANCH  24  31
ATOM     31  C   UNL     1      46.864  19.382  32.233  1.00  0.00     0.129 C 
BRANCH  31  32
ATOM     32  C   UNL     1      45.699  19.114  33.139  1.00  0.00     0.019 C 
ATOM     33  C   UNL     1      45.194  17.712  33.316  1.00  0.00     0.006 C 
ENDBRANCH  31  32
ENDBRANCH  24  31
BRANCH  28  34
ATOM     34  C   UNL     1      46.196  23.420  29.031  1.00  0.00     0.131 C 
BRANCH  34  35
ATOM     35  C   UNL     1      44.715  23.660  29.030  1.00  0.00     0.019 C 
ATOM     36  C   UNL     1      44.087  24.468  27.934  1.00  0.00     0.006 C 
ENDBRANCH  34  35
ENDBRANCH  28  34
ENDBRANCH  18  19
ENDBRANCH  12  13
ENDBRANCH   1  12
TORSDOF 11
ENDMDL
MODEL 11
REMARK minimizedAffinity -6.3314538
REMARK CNNscore 0.305526644
REMARK CNNaffinity 6.27112865
REMARK SMILES CCCn1c(=O)c2[nH]c(-c3ccc(OCC(=O)NCC[NH3+])cc3)nc2n(CCC)c1=O
REMARK SMILES IDX 15 1 16 2 18 3 17 4 19 6 20 7 21 8 14 12 13 13 12 14 22 15
REMARK SMILES IDX 11 16 23 17 10 18 9 19 24 20 8 21 25 22 7 23 26 24 5 25
REMARK SMILES IDX 30 26 6 27 4 28 31 29 27 31 28 32 29 33 3 34 2 35 1 36
REMARK H PARENT 18 5 21 9 21 10 21 11 8 30
REMARK INDEX MAP 7 1 5 2 4 3 6 4 39 5 3 6 1 7 2 8 34 9 35 10 36 11 8 12 9 13
REMARK INDEX MAP 10 14 11 15 12 16 13 17 14 18 15 19 16 20 17 21 18 22 19 23
REMARK INDEX MAP 20 24 21 25 22 26 24 27 25 28 26 29 46 30 23 31 27 32 29 33
REMARK INDEX MAP 28 34 30 35 31 36
ROOT
ATOM      1  C   UNL     1      57.976  26.812  32.038  1.00  0.00     0.329 C 
ENDROOT
BRANCH   1   2
ATOM      2  C   UNL     1      58.448  25.909  30.939  1.00  0.00     0.258 C 
ATOM      3  N   UNL     1      58.543  26.424  29.533  1.00  0.00    -0.347 N 
ATOM      4  O   UNL     1      58.827  24.490  31.245  1.00  0.00    -0.271 OA
ATOM      5  H   UNL     1      58.291  27.370  29.329  1.00  0.00     0.163 HD
BRANCH   3   6
ATOM      6  C   UNL     1      59.017  25.519  28.434  1.00  0.00     0.177 C 
BRANCH   6   7
ATOM      7  C   UNL     1      58.572  25.760  27.022  1.00  0.00     0.280 C 
BRANCH   7   8
ATOM      8  N   UNL     1      59.441  26.547  26.086  1.00  0.00    -0.356 N 
ATOM      9  H   UNL     1      60.272  26.832  26.563  1.00  0.00     0.344 HD
ATOM     10  H   UNL     1      59.223  26.754  25.132  1.00  0.00     0.344 HD
ATOM     11  H   UNL     1      60.108  27.083  25.568  1.00  0.00     0.344 HD
ENDBRANCH   7   8
ENDBRANCH   6   7
ENDBRANCH   3   6
ENDBRANCH   1   2
BRANCH   1  12
ATOM     12  O   UNL     1      57.398  26.228  33.294  1.00  0.00    -0.484 OA
BRANCH  12  13
ATOM     13  C   UNL     1      56.043  25.585  33.268  1.00  0.00     0.120 A 
ATOM     14  C   UNL     1      55.081  25.907  32.163  1.00  0.00     0.047 A 
ATOM     15  C   UNL     1      55.651  24.620  34.347  1.00  0.00     0.047 A 
ATOM     16  C   UNL     1      53.726  25.264  32.137  1.00  0.00     0.016 A 
ATOM     17  C   UNL     1      54.295  23.977  34.321  1.00  0.00     0.016 A 
ATOM     18  C   UNL     1      53.333  24.299  33.216  1.00  0.00     0.018 A 
BRANCH  18  19
ATOM     19  C   UNL     1      51.979  23.656  33.191  1.00  0.00     0.140 A 
ATOM     20  N   UNL     1      50.752  24.209  32.527  1.00  0.00    -0.210 NA
ATOM     21  N   UNL     1      51.611  22.346  33.825  1.00  0.00    -0.332 N 
ATOM     22  C   UNL     1      49.628  23.242  32.751  1.00  0.00     0.168 A 
ATOM     23  C   UNL     1      50.158  22.092  33.552  1.00  0.00     0.150 A 
ATOM     24  N   UNL     1      48.189  23.261  32.328  1.00  0.00    -0.276 N 
ATOM     25  C   UNL     1      49.250  20.959  33.932  1.00  0.00     0.282 A 
ATOM     26  C   UNL     1      47.280  22.129  32.706  1.00  0.00     0.332 A 
ATOM     27  O   UNL     1      49.782  19.808  34.734  1.00  0.00    -0.267 OA
ATOM     28  N   UNL     1      47.811  20.978  33.508  1.00  0.00    -0.258 N 
ATOM     29  O   UNL     1      45.841  22.148  32.284  1.00  0.00    -0.247 OA
ATOM     30  H   UNL     1      52.227  21.750  34.338  1.00  0.00     0.168 HD
BRANCH  24  31
ATOM     31  C   UNL     1      47.658  24.413  31.526  1.00  0.00     0.129 C 
BRANCH  31  32
ATOM     32  C   UNL     1      47.813  24.421  30.034  1.00  0.00     0.019 C 
ATOM     33  C   UNL     1      46.818  23.702  29.172  1.00  0.00     0.006 C 
ENDBRANCH  31  32
ENDBRANCH  24  31
BRANCH  28  34
ATOM     34  C   UNL     1      46.904  19.845  33.888  1.00  0.00     0.131 C 
BRANCH  34  35
ATOM     35  C   UNL     1      46.535  18.806  32.871  1.00  0.00     0.019 C 
ATOM     36  C   UNL     1      45.334  17.935  33.091  1.00  0.00     0.006 C 
ENDBRANCH  34  35
ENDBRANCH  28  34
ENDBRANCH  18  19
ENDBRANCH  12  13
ENDBRANCH   1  12
TORSDOF 11
ENDMDL
MODEL 12
REMARK minimizedAffinity -6.91457367
REMARK CNNscore 0.30055517
REMARK CNNaffinity 6.53149223
REMARK SMILES CCCn1c(=O)c2[nH]c(-c3ccc(OCC(=O)NCC[NH3+])cc3)nc2n(CCC)c1=O
REMARK SMILES IDX 15 1 16 2 18 3 17 4 19 6 20 7 21 8 14 12 13 13 12 14 22 15
REMARK SMILES IDX 11 16 23 17 10 18 9 19 24 20 8 21 25 22 7 23 26 24 5 25
REMARK SMILES IDX 30 26 6 27 4 28 31 29 27 31 28 32 29 33 3 34 2 35 1 36
REMARK H PARENT 18 5 21 9 21 10 21 11 8 30
REMARK INDEX MAP 7 1 5 2 4 3 6 4 39 5 3 6 1 7 2 8 34 9 35 10 36 11 8 12 9 13
REMARK INDEX MAP 10 14 11 15 12 16 13 17 14 18 15 19 16 20 17 21 18 22 19 23
REMARK INDEX MAP 20 24 21 25 22 26 24 27 25 28 26 29 46 30 23 31 27 32 29 33
REMARK INDEX MAP 28 34 30 35 31 36
ROOT
ATOM      1  C   UNL     1      45.569  21.769  30.677  1.00  0.00     0.329 C 
ENDROOT
BRANCH   1   2
ATOM      2  C   UNL     1      45.795  20.788  31.788  1.00  0.00     0.258 C 
ATOM      3  N   UNL     1      46.409  19.451  31.496  1.00  0.00    -0.347 N 
ATOM      4  O   UNL     1      45.407  21.145  33.193  1.00  0.00    -0.271 OA
ATOM      5  H   UNL     1      46.667  19.213  30.560  1.00  0.00     0.163 HD
BRANCH   3   6
ATOM      6  C   UNL     1      46.634  18.470  32.609  1.00  0.00     0.177 C 
BRANCH   6   7
ATOM      7  C   UNL     1      45.463  17.882  33.338  1.00  0.00     0.280 C 
BRANCH   7   8
ATOM      8  N   UNL     1      44.360  17.216  32.571  1.00  0.00    -0.356 N 
ATOM      9  H   UNL     1      44.564  17.254  31.593  1.00  0.00     0.344 HD
ATOM     10  H   UNL     1      43.546  16.799  32.975  1.00  0.00     0.344 HD
ATOM     11  H   UNL     1      43.697  16.804  31.947  1.00  0.00     0.344 HD
ENDBRANCH   7   8
ENDBRANCH   6   7
ENDBRANCH   3   6
ENDBRANCH   1   2
BRANCH   1  12
ATOM     12  O   UNL     1      45.950  23.209  30.856  1.00  0.00    -0.484 OA
BRANCH  12  13
ATOM     13  C   UNL     1      47.395  23.593  30.976  1.00  0.00     0.120 A 
ATOM     14  C   UNL     1      48.080  24.296  29.842  1.00  0.00     0.047 A 
ATOM     15  C   UNL     1      48.154  23.275  32.230  1.00  0.00     0.047 A 
ATOM     16  C   UNL     1      49.525  24.680  29.961  1.00  0.00     0.016 A 
ATOM     17  C   UNL     1      49.599  23.659  32.350  1.00  0.00     0.016 A 
ATOM     18  C   UNL     1      50.284  24.362  31.215  1.00  0.00     0.018 A 
BRANCH  18  19
ATOM     19  C   UNL     1      51.729  24.746  31.336  1.00  0.00     0.140 A 
ATOM     20  N   UNL     1      52.725  24.792  30.215  1.00  0.00    -0.210 NA
ATOM     21  N   UNL     1      52.433  25.151  32.598  1.00  0.00    -0.332 N 
ATOM     22  C   UNL     1      54.043  25.226  30.784  1.00  0.00     0.168 A 
ATOM     23  C   UNL     1      53.863  25.447  32.256  1.00  0.00     0.150 A 
ATOM     24  N   UNL     1      55.386  25.448  30.151  1.00  0.00    -0.276 N 
ATOM     25  C   UNL     1      55.024  25.890  33.097  1.00  0.00     0.282 A 
ATOM     26  C   UNL     1      56.547  25.891  30.991  1.00  0.00     0.332 A 
ATOM     27  O   UNL     1      54.842  26.111  34.569  1.00  0.00    -0.267 OA
ATOM     28  N   UNL     1      56.366  26.112  32.464  1.00  0.00    -0.258 N 
ATOM     29  O   UNL     1      57.889  26.113  30.359  1.00  0.00    -0.247 OA
ATOM     30  H   UNL     1      52.020  25.212  33.506  1.00  0.00     0.168 HD
BRANCH  24  31
ATOM     31  C   UNL     1      55.566  25.226  28.679  1.00  0.00     0.129 C 
BRANCH  31  32
ATOM     32  C   UNL     1      56.311  24.020  28.188  1.00  0.00     0.019 C 
ATOM     33  C   UNL     1      57.467  24.184  27.246  1.00  0.00     0.006 C 
ENDBRANCH  31  32
ENDBRANCH  24  31
BRANCH  28  34
ATOM     34  C   UNL     1      57.527  26.555  33.304  1.00  0.00     0.131 C 
BRANCH  34  35
ATOM     35  C   UNL     1      57.852  25.830  34.577  1.00  0.00     0.019 C 
ATOM     36  C   UNL     1      58.203  26.606  35.813  1.00  0.00     0.006 C 
ENDBRANCH  34  35
ENDBRANCH  28  34
ENDBRANCH  18  19
ENDBRANCH  12  13
ENDBRANCH   1  12
TORSDOF 11
ENDMDL
MODEL 13
REMARK minimizedAffinity -6.98491573
REMARK CNNscore 0.293018639
REMARK CNNaffinity 6.67873478
REMARK SMILES CCCn1c(=O)c2[nH]c(-c3ccc(OCC(=O)NCC[NH3+])cc3)nc2n(CCC)c1=O
REMARK SMILES IDX 15 1 16 2 18 3 17 4 19 6 20 7 21 8 14 12 13 13 12 14 22 15
REMARK SMILES IDX 11 16 23 17 10 18 9 19 24 20 8 21 25 22 7 23 26 24 5 25
REMARK SMILES IDX 30 26 6 27 4 28 31 29 27 31 28 32 29 33 3 34 2 35 1 36
REMARK H PARENT 18 5 21 9 21 10 21 11 8 30
REMARK INDEX MAP 7 1 5 2 4 3 6 4 39 5 3 6 1 7 2 8 34 9 35 10 36 11 8 12 9 13
REMARK INDEX MAP 10 14 11 15 12 16 13 17 14 18 15 19 16 20 17 21 18 22 19 23
REMARK INDEX MAP 20 24 21 25 22 26 24 27 25 28 26 29 46 30 23 31 27 32 29 33
REMARK INDEX MAP 28 34 30 35 31 36
ROOT
ATOM      1  C   UNL     1      53.448  21.857  40.362  1.00  0.00     0.329 C 
ENDROOT
BRANCH   1   2
ATOM      2  C   UNL     1      52.394  22.191  41.374  1.00  0.00     0.258 C 
ATOM      3  N   UNL     1      51.067  22.729  40.927  1.00  0.00    -0.347 N 
ATOM      4  O   UNL     1      52.666  21.987  42.836  1.00  0.00    -0.271 OA
ATOM      5  H   UNL     1      50.886  22.864  39.953  1.00  0.00     0.163 HD
BRANCH   3   6
ATOM      6  C   UNL     1      50.012  23.063  41.940  1.00  0.00     0.177 C 
BRANCH   6   7
ATOM      7  C   UNL     1      50.228  24.194  42.901  1.00  0.00     0.280 C 
BRANCH   7   8
ATOM      8  N   UNL     1      51.427  25.084  42.754  1.00  0.00    -0.356 N 
ATOM      9  H   UNL     1      51.972  24.783  41.971  1.00  0.00     0.344 HD
ATOM     10  H   UNL     1      51.648  25.858  43.348  1.00  0.00     0.344 HD
ATOM     11  H   UNL     1      52.259  25.599  42.548  1.00  0.00     0.344 HD
ENDBRANCH   7   8
ENDBRANCH   6   7
ENDBRANCH   3   6
ENDBRANCH   1   2
BRANCH   1  12
ATOM     12  O   UNL     1      53.642  22.735  39.162  1.00  0.00    -0.484 OA
BRANCH  12  13
ATOM     13  C   UNL     1      52.708  22.627  37.994  1.00  0.00     0.120 A 
ATOM     14  C   UNL     1      51.974  23.841  37.505  1.00  0.00     0.047 A 
ATOM     15  C   UNL     1      52.507  21.305  37.314  1.00  0.00     0.047 A 
ATOM     16  C   UNL     1      51.039  23.733  36.337  1.00  0.00     0.016 A 
ATOM     17  C   UNL     1      51.572  21.197  36.146  1.00  0.00     0.016 A 
ATOM     18  C   UNL     1      50.839  22.411  35.658  1.00  0.00     0.018 A 
BRANCH  18  19
ATOM     19  C   UNL     1      49.904  22.301  34.489  1.00  0.00     0.140 A 
ATOM     20  N   UNL     1      49.083  21.099  34.127  1.00  0.00    -0.210 NA
ATOM     21  N   UNL     1      49.626  23.374  33.477  1.00  0.00    -0.332 N 
ATOM     22  C   UNL     1      48.298  21.429  32.892  1.00  0.00     0.168 A 
ATOM     23  C   UNL     1      48.634  22.834  32.491  1.00  0.00     0.150 A 
ATOM     24  N   UNL     1      47.321  20.630  32.081  1.00  0.00    -0.276 N 
ATOM     25  C   UNL     1      47.992  23.442  31.278  1.00  0.00     0.282 A 
ATOM     26  C   UNL     1      46.679  21.238  30.869  1.00  0.00     0.332 A 
ATOM     27  O   UNL     1      48.329  24.848  30.878  1.00  0.00    -0.267 OA
ATOM     28  N   UNL     1      47.015  22.644  30.467  1.00  0.00    -0.258 N 
ATOM     29  O   UNL     1      45.702  20.440  30.058  1.00  0.00    -0.247 OA
ATOM     30  H   UNL     1      50.032  24.287  33.464  1.00  0.00     0.168 HD
BRANCH  24  31
ATOM     31  C   UNL     1      46.985  19.225  32.483  1.00  0.00     0.129 C 
BRANCH  31  32
ATOM     32  C   UNL     1      45.884  18.970  33.469  1.00  0.00     0.019 C 
ATOM     33  C   UNL     1      44.882  17.883  33.212  1.00  0.00     0.006 C 
ENDBRANCH  31  32
ENDBRANCH  24  31
BRANCH  28  34
ATOM     34  C   UNL     1      46.374  23.252  29.256  1.00  0.00     0.131 C 
BRANCH  34  35
ATOM     35  C   UNL     1      46.680  24.671  28.876  1.00  0.00     0.019 C 
ATOM     36  C   UNL     1      45.775  25.407  27.934  1.00  0.00     0.006 C 
ENDBRANCH  34  35
ENDBRANCH  28  34
ENDBRANCH  18  19
ENDBRANCH  12  13
ENDBRANCH   1  12
TORSDOF 11
ENDMDL
MODEL 14
REMARK minimizedAffinity -6.63264894
REMARK CNNscore 0.271605998
REMARK CNNaffinity 6.39245892
REMARK SMILES CCCn1c(=O)c2[nH]c(-c3ccc(OCC(=O)NCC[NH3+])cc3)nc2n(CCC)c1=O
REMARK SMILES IDX 15 1 16 2 18 3 17 4 19 6 20 7 21 8 14 12 13 13 12 14 22 15
REMARK SMILES IDX 11 16 23 17 10 18 9 19 24 20 8 21 25 22 7 23 26 24 5 25
REMARK SMILES IDX 30 26 6 27 4 28 31 29 27 31 28 32 29 33 3 34 2 35 1 36
REMARK H PARENT 18 5 21 9 21 10 21 11 8 30
REMARK INDEX MAP 7 1 5 2 4 3 6 4 39 5 3 6 1 7 2 8 34 9 35 10 36 11 8 12 9 13
REMARK INDEX MAP 10 14 11 15 12 16 13 17 14 18 15 19 16 20 17 21 18 22 19 23
REMARK INDEX MAP 20 24 21 25 22 26 24 27 25 28 26 29 46 30 23 31 27 32 29 33
REMARK INDEX MAP 28 34 30 35 31 36
ROOT
ATOM      1  C   UNL     1      53.128  22.158  40.566  1.00  0.00     0.329 C 
ENDROOT
BRANCH   1   2
ATOM      2  C   UNL     1      53.973  21.439  41.574  1.00  0.00     0.258 C 
ATOM      3  N   UNL     1      53.756  19.977  41.830  1.00  0.00    -0.347 N 
ATOM      4  O   UNL     1      55.037  22.182  42.327  1.00  0.00    -0.271 OA
ATOM      5  H   UNL     1      53.046  19.482  41.328  1.00  0.00     0.163 HD
BRANCH   3   6
ATOM      6  C   UNL     1      54.602  19.258  42.839  1.00  0.00     0.177 C 
BRANCH   6   7
ATOM      7  C   UNL     1      55.818  18.501  42.394  1.00  0.00     0.280 C 
BRANCH   7   8
ATOM      8  N   UNL     1      55.906  17.021  42.625  1.00  0.00    -0.356 N 
ATOM      9  H   UNL     1      55.075  16.705  43.083  1.00  0.00     0.344 HD
ATOM     10  H   UNL     1      56.676  16.441  42.361  1.00  0.00     0.344 HD
ATOM     11  H   UNL     1      55.840  16.046  42.836  1.00  0.00     0.344 HD
ENDBRANCH   7   8
ENDBRANCH   6   7
ENDBRANCH   3   6
ENDBRANCH   1   2
BRANCH   1  12
ATOM     12  O   UNL     1      53.638  22.367  39.170  1.00  0.00    -0.484 OA
BRANCH  12  13
ATOM     13  C   UNL     1      52.694  22.289  38.007  1.00  0.00     0.120 A 
ATOM     14  C   UNL     1      53.225  22.345  36.605  1.00  0.00     0.047 A 
ATOM     15  C   UNL     1      51.219  22.156  38.246  1.00  0.00     0.047 A 
ATOM     16  C   UNL     1      52.281  22.268  35.442  1.00  0.00     0.016 A 
ATOM     17  C   UNL     1      50.275  22.078  37.083  1.00  0.00     0.016 A 
ATOM     18  C   UNL     1      50.806  22.134  35.681  1.00  0.00     0.018 A 
BRANCH  18  19
ATOM     19  C   UNL     1      49.861  22.057  34.519  1.00  0.00     0.140 A 
ATOM     20  N   UNL     1      49.075  20.849  34.101  1.00  0.00    -0.210 NA
ATOM     21  N   UNL     1      49.537  23.172  33.569  1.00  0.00    -0.332 N 
ATOM     22  C   UNL     1      48.265  21.219  32.894  1.00  0.00     0.168 A 
ATOM     23  C   UNL     1      48.550  22.653  32.565  1.00  0.00     0.150 A 
ATOM     24  N   UNL     1      47.304  20.432  32.052  1.00  0.00    -0.276 N 
ATOM     25  C   UNL     1      47.874  23.304  31.394  1.00  0.00     0.282 A 
ATOM     26  C   UNL     1      46.628  21.082  30.881  1.00  0.00     0.332 A 
ATOM     27  O   UNL     1      48.160  24.739  31.066  1.00  0.00    -0.267 OA
ATOM     28  N   UNL     1      46.913  22.518  30.552  1.00  0.00    -0.258 N 
ATOM     29  O   UNL     1      45.667  20.297  30.038  1.00  0.00    -0.247 OA
ATOM     30  H   UNL     1      49.912  24.098  33.600  1.00  0.00     0.168 HD
BRANCH  24  31
ATOM     31  C   UNL     1      47.018  18.997  32.381  1.00  0.00     0.129 C 
BRANCH  31  32
ATOM     32  C   UNL     1      45.983  18.655  33.410  1.00  0.00     0.019 C 
ATOM     33  C   UNL     1      44.874  17.703  33.072  1.00  0.00     0.006 C 
ENDBRANCH  31  32
ENDBRANCH  24  31
BRANCH  28  34
ATOM     34  C   UNL     1      46.238  23.168  29.381  1.00  0.00     0.131 C 
BRANCH  34  35
ATOM     35  C   UNL     1      44.749  23.349  29.379  1.00  0.00     0.019 C 
ATOM     36  C   UNL     1      43.965  23.133  30.639  1.00  0.00     0.006 C 
ENDBRANCH  34  35
ENDBRANCH  28  34
ENDBRANCH  18  19
ENDBRANCH  12  13
ENDBRANCH   1  12
TORSDOF 11
ENDMDL
MODEL 15
REMARK minimizedAffinity -6.75184107
REMARK CNNscore 0.266714782
REMARK CNNaffinity 6.70211601
REMARK SMILES CCCn1c(=O)c2[nH]c(-c3ccc(OCC(=O)NCC[NH3+])cc3)nc2n(CCC)c1=O
REMARK SMILES IDX 15 1 16 2 18 3 17 4 19 6 20 7 21 8 14 12 13 13 12 14 22 15
REMARK SMILES IDX 11 16 23 17 10 18 9 19 24 20 8 21 25 22 7 23 26 24 5 25
REMARK SMILES IDX 30 26 6 27 4 28 31 29 27 31 28 32 29 33 3 34 2 35 1 36
REMARK H PARENT 18 5 21 9 21 10 21 11 8 30
REMARK INDEX MAP 7 1 5 2 4 3 6 4 39 5 3 6 1 7 2 8 34 9 35 10 36 11 8 12 9 13
REMARK INDEX MAP 10 14 11 15 12 16 13 17 14 18 15 19 16 20 17 21 18 22 19 23
REMARK INDEX MAP 20 24 21 25 22 26 24 27 25 28 26 29 46 30 23 31 27 32 29 33
REMARK INDEX MAP 28 34 30 35 31 36
ROOT
ATOM      1  C   UNL     1      54.687  24.609  34.455  1.00  0.00     0.329 C 
ENDROOT
BRANCH   1   2
ATOM      2  C   UNL     1      54.526  23.411  35.340  1.00  0.00     0.258 C 
ATOM      3  N   UNL     1      53.171  23.047  35.873  1.00  0.00    -0.347 N 
ATOM      4  O   UNL     1      55.719  22.573  35.695  1.00  0.00    -0.271 OA
ATOM      5  H   UNL     1      52.375  23.605  35.637  1.00  0.00     0.163 HD
BRANCH   3   6
ATOM      6  C   UNL     1      53.010  21.848  36.759  1.00  0.00     0.177 C 
BRANCH   6   7
ATOM      7  C   UNL     1      52.653  20.518  36.164  1.00  0.00     0.280 C 
BRANCH   7   8
ATOM      8  N   UNL     1      53.441  19.296  36.532  1.00  0.00    -0.356 N 
ATOM      9  H   UNL     1      54.161  19.546  37.180  1.00  0.00     0.344 HD
ATOM     10  H   UNL     1      53.273  18.374  36.184  1.00  0.00     0.344 HD
ATOM     11  H   UNL     1      54.040  18.565  36.857  1.00  0.00     0.344 HD
ENDBRANCH   7   8
ENDBRANCH   6   7
ENDBRANCH   3   6
ENDBRANCH   1   2
BRANCH   1  12
ATOM     12  O   UNL     1      54.463  24.486  32.976  1.00  0.00    -0.484 OA
BRANCH  12  13
ATOM     13  C   UNL     1      53.067  24.393  32.435  1.00  0.00     0.120 A 
ATOM     14  C   UNL     1      52.741  24.982  31.094  1.00  0.00     0.047 A 
ATOM     15  C   UNL     1      51.997  23.710  33.234  1.00  0.00     0.047 A 
ATOM     16  C   UNL     1      51.345  24.888  30.552  1.00  0.00     0.016 A 
ATOM     17  C   UNL     1      50.601  23.616  32.693  1.00  0.00     0.016 A 
ATOM     18  C   UNL     1      50.276  24.205  31.352  1.00  0.00     0.018 A 
BRANCH  18  19
ATOM     19  C   UNL     1      48.880  24.111  30.811  1.00  0.00     0.140 A 
ATOM     20  N   UNL     1      47.750  23.332  31.418  1.00  0.00    -0.210 NA
ATOM     21  N   UNL     1      48.367  24.779  29.569  1.00  0.00    -0.332 N 
ATOM     22  C   UNL     1      46.540  23.519  30.551  1.00  0.00     0.168 A 
ATOM     23  C   UNL     1      46.921  24.412  29.409  1.00  0.00     0.150 A 
ATOM     24  N   UNL     1      45.140  22.990  30.655  1.00  0.00    -0.276 N 
ATOM     25  C   UNL     1      45.903  24.778  28.369  1.00  0.00     0.282 A 
ATOM     26  C   UNL     1      44.121  23.355  29.616  1.00  0.00     0.332 A 
ATOM     27  O   UNL     1      46.285  25.671  27.227  1.00  0.00    -0.267 OA
ATOM     28  N   UNL     1      44.503  24.248  28.473  1.00  0.00    -0.258 N 
ATOM     29  O   UNL     1      42.722  22.826  29.719  1.00  0.00    -0.247 OA
ATOM     30  H   UNL     1      48.897  25.365  28.956  1.00  0.00     0.168 HD
BRANCH  24  31
ATOM     31  C   UNL     1      44.759  22.096  31.798  1.00  0.00     0.129 C 
BRANCH  31  32
ATOM     32  C   UNL     1      45.496  20.809  32.021  1.00  0.00     0.019 C 
ATOM     33  C   UNL     1      46.237  20.163  30.888  1.00  0.00     0.006 C 
ENDBRANCH  31  32
ENDBRANCH  24  31
BRANCH  28  34
ATOM     34  C   UNL     1      43.485  24.614  27.434  1.00  0.00     0.131 C 
BRANCH  34  35
ATOM     35  C   UNL     1      42.216  23.823  27.315  1.00  0.00     0.019 C 
ATOM     36  C   UNL     1      41.259  24.105  26.195  1.00  0.00     0.006 C 
ENDBRANCH  34  35
ENDBRANCH  28  34
ENDBRANCH  18  19
ENDBRANCH  12  13
ENDBRANCH   1  12
TORSDOF 11
ENDMDL
MODEL 16
REMARK minimizedAffinity -6.7058177
REMARK CNNscore 0.259314448
REMARK CNNaffinity 6.44879913
REMARK SMILES CCCn1c(=O)c2[nH]c(-c3ccc(OCC(=O)NCC[NH3+])cc3)nc2n(CCC)c1=O
REMARK SMILES IDX 15 1 16 2 18 3 17 4 19 6 20 7 21 8 14 12 13 13 12 14 22 15
REMARK SMILES IDX 11 16 23 17 10 18 9 19 24 20 8 21 25 22 7 23 26 24 5 25
REMARK SMILES IDX 30 26 6 27 4 28 31 29 27 31 28 32 29 33 3 34 2 35 1 36
REMARK H PARENT 18 5 21 9 21 10 21 11 8 30
REMARK INDEX MAP 7 1 5 2 4 3 6 4 39 5 3 6 1 7 2 8 34 9 35 10 36 11 8 12 9 13
REMARK INDEX MAP 10 14 11 15 12 16 13 17 14 18 15 19 16 20 17 21 18 22 19 23
REMARK INDEX MAP 20 24 21 25 22 26 24 27 25 28 26 29 46 30 23 31 27 32 29 33
REMARK INDEX MAP 28 34 30 35 31 36
ROOT
ATOM      1  C   UNL     1      57.278  27.079  31.475  1.00  0.00     0.329 C 
ENDROOT
BRANCH   1   2
ATOM      2  C   UNL     1      58.127  26.950  32.704  1.00  0.00     0.258 C 
ATOM      3  N   UNL     1      57.611  27.436  34.027  1.00  0.00    -0.347 N 
ATOM      4  O   UNL     1      59.492  26.335  32.612  1.00  0.00    -0.271 OA
ATOM      5  H   UNL     1      56.701  27.846  34.088  1.00  0.00     0.163 HD
BRANCH   3   6
ATOM      6  C   UNL     1      58.460  27.306  35.256  1.00  0.00     0.177 C 
BRANCH   6   7
ATOM      7  C   UNL     1      58.242  28.229  36.419  1.00  0.00     0.280 C 
BRANCH   7   8
ATOM      8  N   UNL     1      58.263  29.714  36.211  1.00  0.00    -0.356 N 
ATOM      9  H   UNL     1      58.434  29.914  35.246  1.00  0.00     0.344 HD
ATOM     10  H   UNL     1      58.127  30.399  36.927  1.00  0.00     0.344 HD
ATOM     11  H   UNL     1      58.301  30.676  35.941  1.00  0.00     0.344 HD
ENDBRANCH   7   8
ENDBRANCH   6   7
ENDBRANCH   3   6
ENDBRANCH   1   2
BRANCH   1  12
ATOM     12  O   UNL     1      56.749  25.851  30.795  1.00  0.00    -0.484 OA
BRANCH  12  13
ATOM     13  C   UNL     1      55.368  25.356  31.110  1.00  0.00     0.120 A 
ATOM     14  C   UNL     1      54.335  25.273  30.026  1.00  0.00     0.047 A 
ATOM     15  C   UNL     1      55.021  24.943  32.510  1.00  0.00     0.047 A 
ATOM     16  C   UNL     1      52.955  24.778  30.341  1.00  0.00     0.016 A 
ATOM     17  C   UNL     1      53.641  24.448  32.825  1.00  0.00     0.016 A 
ATOM     18  C   UNL     1      52.608  24.365  31.740  1.00  0.00     0.018 A 
BRANCH  18  19
ATOM     19  C   UNL     1      51.228  23.870  32.056  1.00  0.00     0.140 A 
ATOM     20  N   UNL     1      50.855  22.963  33.192  1.00  0.00    -0.210 NA
ATOM     21  N   UNL     1      49.977  24.194  31.293  1.00  0.00    -0.332 N 
ATOM     22  C   UNL     1      49.376  22.727  33.130  1.00  0.00     0.168 A 
ATOM     23  C   UNL     1      48.833  23.487  31.957  1.00  0.00     0.150 A 
ATOM     24  N   UNL     1      48.452  21.917  33.992  1.00  0.00    -0.276 N 
ATOM     25  C   UNL     1      47.366  23.438  31.644  1.00  0.00     0.282 A 
ATOM     26  C   UNL     1      46.985  21.868  33.679  1.00  0.00     0.332 A 
ATOM     27  O   UNL     1      46.824  24.199  30.471  1.00  0.00    -0.267 OA
ATOM     28  N   UNL     1      46.443  22.628  32.506  1.00  0.00    -0.258 N 
ATOM     29  O   UNL     1      46.061  21.058  34.540  1.00  0.00    -0.247 OA
ATOM     30  H   UNL     1      49.918  24.778  30.484  1.00  0.00     0.168 HD
BRANCH  24  31
ATOM     31  C   UNL     1      48.995  21.156  35.165  1.00  0.00     0.129 C 
BRANCH  31  32
ATOM     32  C   UNL     1      49.739  19.873  34.947  1.00  0.00     0.019 C 
ATOM     33  C   UNL     1      51.211  19.802  35.228  1.00  0.00     0.006 C 
ENDBRANCH  31  32
ENDBRANCH  24  31
BRANCH  28  34
ATOM     34  C   UNL     1      44.977  22.580  32.193  1.00  0.00     0.131 C 
BRANCH  34  35
ATOM     35  C   UNL     1      44.512  22.619  30.767  1.00  0.00     0.019 C 
ATOM     36  C   UNL     1      43.099  23.013  30.450  1.00  0.00     0.006 C 
ENDBRANCH  34  35
ENDBRANCH  28  34
ENDBRANCH  18  19
ENDBRANCH  12  13
ENDBRANCH   1  12
TORSDOF 11
ENDMDL
MODEL 17
REMARK minimizedAffinity -7.30361414
REMARK CNNscore 0.23499231
REMARK CNNaffinity 6.37976551
REMARK SMILES CCCn1c(=O)c2[nH]c(-c3ccc(OCC(=O)NCC[NH3+])cc3)nc2n(CCC)c1=O
REMARK SMILES IDX 15 1 16 2 18 3 17 4 19 6 20 7 21 8 14 12 13 13 12 14 22 15
REMARK SMILES IDX 11 16 23 17 10 18 9 19 24 20 8 21 25 22 7 23 26 24 5 25
REMARK SMILES IDX 30 26 6 27 4 28 31 29 27 31 28 32 29 33 3 34 2 35 1 36
REMARK H PARENT 18 5 21 9 21 10 21 11 8 30
REMARK INDEX MAP 7 1 5 2 4 3 6 4 39 5 3 6 1 7 2 8 34 9 35 10 36 11 8 12 9 13
REMARK INDEX MAP 10 14 11 15 12 16 13 17 14 18 15 19 16 20 17 21 18 22 19 23
REMARK INDEX MAP 20 24 21 25 22 26 24 27 25 28 26 29 46 30 23 31 27 32 29 33
REMARK INDEX MAP 28 34 30 35 31 36
ROOT
ATOM      1  C   UNL     1      45.828  21.230  31.799  1.00  0.00     0.329 C 
ENDROOT
BRANCH   1   2
ATOM      2  C   UNL     1      45.345  20.177  32.751  1.00  0.00     0.258 C 
ATOM      3  N   UNL     1      45.474  18.725  32.393  1.00  0.00    -0.347 N 
ATOM      4  O   UNL     1      44.733  20.574  34.062  1.00  0.00    -0.271 OA
ATOM      5  H   UNL     1      45.882  18.461  31.519  1.00  0.00     0.163 HD
BRANCH   3   6
ATOM      6  C   UNL     1      44.991  17.672  33.346  1.00  0.00     0.177 C 
BRANCH   6   7
ATOM      7  C   UNL     1      43.532  17.575  33.679  1.00  0.00     0.280 C 
BRANCH   7   8
ATOM      8  N   UNL     1      42.728  16.406  33.191  1.00  0.00    -0.356 N 
ATOM      9  H   UNL     1      43.316  15.793  32.665  1.00  0.00     0.344 HD
ATOM     10  H   UNL     1      41.754  16.263  33.366  1.00  0.00     0.344 HD
ATOM     11  H   UNL     1      42.309  15.583  32.809  1.00  0.00     0.344 HD
ENDBRANCH   7   8
ENDBRANCH   6   7
ENDBRANCH   3   6
ENDBRANCH   1   2
BRANCH   1  12
ATOM     12  O   UNL     1      46.189  22.594  32.309  1.00  0.00    -0.484 OA
BRANCH  12  13
ATOM     13  C   UNL     1      47.631  22.971  32.486  1.00  0.00     0.120 A 
ATOM     14  C   UNL     1      48.579  22.018  33.151  1.00  0.00     0.047 A 
ATOM     15  C   UNL     1      48.122  24.301  31.997  1.00  0.00     0.047 A 
ATOM     16  C   UNL     1      50.021  22.396  33.327  1.00  0.00     0.016 A 
ATOM     17  C   UNL     1      49.563  24.679  32.173  1.00  0.00     0.016 A 
ATOM     18  C   UNL     1      50.512  23.726  32.838  1.00  0.00     0.018 A 
BRANCH  18  19
ATOM     19  C   UNL     1      51.953  24.104  33.014  1.00  0.00     0.140 A 
ATOM     20  N   UNL     1      52.689  25.157  32.239  1.00  0.00    -0.210 NA
ATOM     21  N   UNL     1      52.912  23.496  33.995  1.00  0.00    -0.332 N 
ATOM     22  C   UNL     1      54.101  25.200  32.741  1.00  0.00     0.168 A 
ATOM     23  C   UNL     1      54.240  24.174  33.826  1.00  0.00     0.150 A 
ATOM     24  N   UNL     1      55.280  26.041  32.350  1.00  0.00    -0.276 N 
ATOM     25  C   UNL     1      55.556  23.988  34.520  1.00  0.00     0.282 A 
ATOM     26  C   UNL     1      56.597  25.856  33.044  1.00  0.00     0.332 A 
ATOM     27  O   UNL     1      55.693  22.962  35.606  1.00  0.00    -0.267 OA
ATOM     28  N   UNL     1      56.735  24.830  34.129  1.00  0.00    -0.258 N 
ATOM     29  O   UNL     1      57.776  26.697  32.653  1.00  0.00    -0.247 OA
ATOM     30  H   UNL     1      52.702  22.768  34.646  1.00  0.00     0.168 HD
BRANCH  24  31
ATOM     31  C   UNL     1      55.142  27.067  31.264  1.00  0.00     0.129 C 
BRANCH  31  32
ATOM     32  C   UNL     1      54.665  26.658  29.902  1.00  0.00     0.019 C 
ATOM     33  C   UNL     1      55.364  25.556  29.162  1.00  0.00     0.006 C 
ENDBRANCH  31  32
ENDBRANCH  24  31
BRANCH  28  34
ATOM     34  C   UNL     1      58.051  24.644  34.824  1.00  0.00     0.131 C 
BRANCH  34  35
ATOM     35  C   UNL     1      58.315  25.334  36.130  1.00  0.00     0.019 C 
ATOM     36  C   UNL     1      58.179  26.824  36.232  1.00  0.00     0.006 C 
ENDBRANCH  34  35
ENDBRANCH  28  34
ENDBRANCH  18  19
ENDBRANCH  12  13
ENDBRANCH   1  12
TORSDOF 11
ENDMDL
MODEL 18
REMARK minimizedAffinity -7.00789404
REMARK CNNscore 0.233650059
REMARK CNNaffinity 6.67468739
REMARK SMILES CCCn1c(=O)c2[nH]c(-c3ccc(OCC(=O)NCC[NH3+])cc3)nc2n(CCC)c1=O
REMARK SMILES IDX 15 1 16 2 18 3 17 4 19 6 20 7 21 8 14 12 13 13 12 14 22 15
REMARK SMILES IDX 11 16 23 17 10 18 9 19 24 20 8 21 25 22 7 23 26 24 5 25
REMARK SMILES IDX 30 26 6 27 4 28 31 29 27 31 28 32 29 33 3 34 2 35 1 36
REMARK H PARENT 18 5 21 9 21 10 21 11 8 30
REMARK INDEX MAP 7 1 5 2 4 3 6 4 39 5 3 6 1 7 2 8 34 9 35 10 36 11 8 12 9 13
REMARK INDEX MAP 10 14 11 15 12 16 13 17 14 18 15 19 16 20 17 21 18 22 19 23
REMARK INDEX MAP 20 24 21 25 22 26 24 27 25 28 26 29 46 30 23 31 27 32 29 33
REMARK INDEX MAP 28 34 30 35 31 36
ROOT
ATOM      1  C   UNL     1      53.868  22.789  39.589  1.00  0.00     0.329 C 
ENDROOT
BRANCH   1   2
ATOM      2  C   UNL     1      52.588  23.101  40.304  1.00  0.00     0.258 C 
ATOM      3  N   UNL     1      51.728  21.987  40.825  1.00  0.00    -0.347 N 
ATOM      4  O   UNL     1      52.166  24.528  40.499  1.00  0.00    -0.271 OA
ATOM      5  H   UNL     1      52.010  21.037  40.695  1.00  0.00     0.163 HD
BRANCH   3   6
ATOM      6  C   UNL     1      50.448  22.300  41.541  1.00  0.00     0.177 C 
BRANCH   6   7
ATOM      7  C   UNL     1      50.280  21.915  42.981  1.00  0.00     0.280 C 
BRANCH   7   8
ATOM      8  N   UNL     1      49.796  20.540  43.337  1.00  0.00    -0.356 N 
ATOM      9  H   UNL     1      49.634  20.016  42.500  1.00  0.00     0.344 HD
ATOM     10  H   UNL     1      49.656  20.200  44.267  1.00  0.00     0.344 HD
ATOM     11  H   UNL     1      49.468  19.601  43.439  1.00  0.00     0.344 HD
ENDBRANCH   7   8
ENDBRANCH   6   7
ENDBRANCH   3   6
ENDBRANCH   1   2
BRANCH   1  12
ATOM     12  O   UNL     1      53.885  21.769  38.490  1.00  0.00    -0.484 OA
BRANCH  12  13
ATOM     13  C   UNL     1      52.881  21.848  37.377  1.00  0.00     0.120 A 
ATOM     14  C   UNL     1      52.592  20.636  36.541  1.00  0.00     0.047 A 
ATOM     15  C   UNL     1      52.168  23.138  37.102  1.00  0.00     0.047 A 
ATOM     16  C   UNL     1      51.588  20.715  35.429  1.00  0.00     0.016 A 
ATOM     17  C   UNL     1      51.164  23.217  35.990  1.00  0.00     0.016 A 
ATOM     18  C   UNL     1      50.875  22.006  35.153  1.00  0.00     0.018 A 
BRANCH  18  19
ATOM     19  C   UNL     1      49.871  22.086  34.041  1.00  0.00     0.140 A 
ATOM     20  N   UNL     1      48.915  21.002  33.638  1.00  0.00    -0.210 NA
ATOM     21  N   UNL     1      49.646  23.262  33.138  1.00  0.00    -0.332 N 
ATOM     22  C   UNL     1      48.100  21.510  32.485  1.00  0.00     0.168 A 
ATOM     23  C   UNL     1      48.552  22.905  32.176  1.00  0.00     0.150 A 
ATOM     24  N   UNL     1      47.004  20.880  31.676  1.00  0.00    -0.276 N 
ATOM     25  C   UNL     1      47.909  23.673  31.059  1.00  0.00     0.282 A 
ATOM     26  C   UNL     1      46.361  21.646  30.559  1.00  0.00     0.332 A 
ATOM     27  O   UNL     1      48.361  25.069  30.751  1.00  0.00    -0.267 OA
ATOM     28  N   UNL     1      46.813  23.043  30.250  1.00  0.00    -0.258 N 
ATOM     29  O   UNL     1      45.265  21.017  29.751  1.00  0.00    -0.247 OA
ATOM     30  H   UNL     1      50.140  24.131  33.171  1.00  0.00     0.168 HD
BRANCH  24  31
ATOM     31  C   UNL     1      46.552  19.483  31.985  1.00  0.00     0.129 C 
BRANCH  31  32
ATOM     32  C   UNL     1      45.533  19.246  33.059  1.00  0.00     0.019 C 
ATOM     33  C   UNL     1      44.690  20.382  33.558  1.00  0.00     0.006 C 
ENDBRANCH  31  32
ENDBRANCH  24  31
BRANCH  28  34
ATOM     34  C   UNL     1      46.170  23.810  29.133  1.00  0.00     0.131 C 
BRANCH  34  35
ATOM     35  C   UNL     1      44.694  23.692  28.893  1.00  0.00     0.019 C 
ATOM     36  C   UNL     1      43.986  24.718  28.059  1.00  0.00     0.006 C 
ENDBRANCH  34  35
ENDBRANCH  28  34
ENDBRANCH  18  19
ENDBRANCH  12  13
ENDBRANCH   1  12
TORSDOF 11
ENDMDL
MODEL 19
REMARK minimizedAffinity -6.5968461
REMARK CNNscore 0.221854717
REMARK CNNaffinity 6.2966423
REMARK SMILES CCCn1c(=O)c2[nH]c(-c3ccc(OCC(=O)NCC[NH3+])cc3)nc2n(CCC)c1=O
REMARK SMILES IDX 15 1 16 2 18 3 17 4 19 6 20 7 21 8 14 12 13 13 12 14 22 15
REMARK SMILES IDX 11 16 23 17 10 18 9 19 24 20 8 21 25 22 7 23 26 24 5 25
REMARK SMILES IDX 30 26 6 27 4 28 31 29 27 31 28 32 29 33 3 34 2 35 1 36
REMARK H PARENT 18 5 21 9 21 10 21 11 8 30
REMARK INDEX MAP 7 1 5 2 4 3 6 4 39 5 3 6 1 7 2 8 34 9 35 10 36 11 8 12 9 13
REMARK INDEX MAP 10 14 11 15 12 16 13 17 14 18 15 19 16 20 17 21 18 22 19 23
REMARK INDEX MAP 20 24 21 25 22 26 24 27 25 28 26 29 46 30 23 31 27 32 29 33
REMARK INDEX MAP 28 34 30 35 31 36
ROOT
ATOM      1  C   UNL     1      44.524  22.488  30.192  1.00  0.00     0.329 C 
ENDROOT
BRANCH   1   2
ATOM      2  C   UNL     1      44.535  22.262  31.674  1.00  0.00     0.258 C 
ATOM      3  N   UNL     1      45.482  21.265  32.274  1.00  0.00    -0.347 N 
ATOM      4  O   UNL     1      43.598  23.032  32.558  1.00  0.00    -0.271 OA
ATOM      5  H   UNL     1      46.106  20.751  31.685  1.00  0.00     0.163 HD
BRANCH   3   6
ATOM      6  C   UNL     1      45.493  21.039  33.757  1.00  0.00     0.177 C 
BRANCH   6   7
ATOM      7  C   UNL     1      46.535  20.154  34.373  1.00  0.00     0.280 C 
BRANCH   7   8
ATOM      8  N   UNL     1      46.963  20.376  35.794  1.00  0.00    -0.356 N 
ATOM      9  H   UNL     1      46.456  21.148  36.178  1.00  0.00     0.344 HD
ATOM     10  H   UNL     1      47.648  19.836  36.282  1.00  0.00     0.344 HD
ATOM     11  H   UNL     1      47.157  20.628  36.742  1.00  0.00     0.344 HD
ENDBRANCH   7   8
ENDBRANCH   6   7
ENDBRANCH   3   6
ENDBRANCH   1   2
BRANCH   1  12
ATOM     12  O   UNL     1      45.257  23.658  29.605  1.00  0.00    -0.484 OA
BRANCH  12  13
ATOM     13  C   UNL     1      46.681  23.923  29.995  1.00  0.00     0.120 A 
ATOM     14  C   UNL     1      47.720  24.142  28.934  1.00  0.00     0.047 A 
ATOM     15  C   UNL     1      47.066  23.968  31.443  1.00  0.00     0.047 A 
ATOM     16  C   UNL     1      49.144  24.407  29.323  1.00  0.00     0.016 A 
ATOM     17  C   UNL     1      48.491  24.233  31.832  1.00  0.00     0.016 A 
ATOM     18  C   UNL     1      49.529  24.452  30.772  1.00  0.00     0.018 A 
BRANCH  18  19
ATOM     19  C   UNL     1      50.953  24.717  31.162  1.00  0.00     0.140 A 
ATOM     20  N   UNL     1      52.069  25.085  30.229  1.00  0.00    -0.210 NA
ATOM     21  N   UNL     1      51.513  24.659  32.553  1.00  0.00    -0.332 N 
ATOM     22  C   UNL     1      53.317  25.256  31.043  1.00  0.00     0.168 A 
ATOM     23  C   UNL     1      52.974  24.993  32.479  1.00  0.00     0.150 A 
ATOM     24  N   UNL     1      54.722  25.617  30.661  1.00  0.00    -0.276 N 
ATOM     25  C   UNL     1      54.036  25.090  33.534  1.00  0.00     0.282 A 
ATOM     26  C   UNL     1      55.784  25.714  31.716  1.00  0.00     0.332 A 
ATOM     27  O   UNL     1      53.691  24.827  34.970  1.00  0.00    -0.267 OA
ATOM     28  N   UNL     1      55.441  25.451  33.153  1.00  0.00    -0.258 N 
ATOM     29  O   UNL     1      57.189  26.075  31.336  1.00  0.00    -0.247 OA
ATOM     30  H   UNL     1      51.002  24.438  33.383  1.00  0.00     0.168 HD
BRANCH  24  31
ATOM     31  C   UNL     1      55.066  25.880  29.225  1.00  0.00     0.129 C 
BRANCH  31  32
ATOM     32  C   UNL     1      55.868  24.877  28.450  1.00  0.00     0.019 C 
ATOM     33  C   UNL     1      57.137  25.296  27.769  1.00  0.00     0.006 C 
ENDBRANCH  31  32
ENDBRANCH  24  31
BRANCH  28  34
ATOM     34  C   UNL     1      56.502  25.548  34.208  1.00  0.00     0.131 C 
BRANCH  34  35
ATOM     35  C   UNL     1      57.257  24.323  34.629  1.00  0.00     0.019 C 
ATOM     36  C   UNL     1      57.727  24.181  36.047  1.00  0.00     0.006 C 
ENDBRANCH  34  35
ENDBRANCH  28  34
ENDBRANCH  18  19
ENDBRANCH  12  13
ENDBRANCH   1  12
TORSDOF 11
ENDMDL
MODEL 20
REMARK minimizedAffinity -7.17628336
REMARK CNNscore 0.196004987
REMARK CNNaffinity 6.24231052
REMARK SMILES CCCn1c(=O)c2[nH]c(-c3ccc(OCC(=O)NCC[NH3+])cc3)nc2n(CCC)c1=O
REMARK SMILES IDX 15 1 16 2 18 3 17 4 19 6 20 7 21 8 14 12 13 13 12 14 22 15
REMARK SMILES IDX 11 16 23 17 10 18 9 19 24 20 8 21 25 22 7 23 26 24 5 25
REMARK SMILES IDX 30 26 6 27 4 28 31 29 27 31 28 32 29 33 3 34 2 35 1 36
REMARK H PARENT 18 5 21 9 21 10 21 11 8 30
REMARK INDEX MAP 7 1 5 2 4 3 6 4 39 5 3 6 1 7 2 8 34 9 35 10 36 11 8 12 9 13
REMARK INDEX MAP 10 14 11 15 12 16 13 17 14 18 15 19 16 20 17 21 18 22 19 23
REMARK INDEX MAP 20 24 21 25 22 26 24 27 25 28 26 29 46 30 23 31 27 32 29 33
REMARK INDEX MAP 28 34 30 35 31 36
ROOT
ATOM      1  C   UNL     1      46.140  20.773  30.864  1.00  0.00     0.329 C 
ENDROOT
BRANCH   1   2
ATOM      2  C   UNL     1      45.386  22.000  30.451  1.00  0.00     0.258 C 
ATOM      3  N   UNL     1      45.705  22.676  29.150  1.00  0.00    -0.347 N 
ATOM      4  O   UNL     1      44.311  22.555  31.339  1.00  0.00    -0.271 OA
ATOM      5  H   UNL     1      46.421  22.306  28.558  1.00  0.00     0.163 HD
BRANCH   3   6
ATOM      6  C   UNL     1      44.950  23.904  28.737  1.00  0.00     0.177 C 
BRANCH   6   7
ATOM      7  C   UNL     1      45.673  25.045  28.086  1.00  0.00     0.280 C 
BRANCH   7   8
ATOM      8  N   UNL     1      47.172  25.051  28.036  1.00  0.00    -0.356 N 
ATOM      9  H   UNL     1      47.524  24.227  28.480  1.00  0.00     0.344 HD
ATOM     10  H   UNL     1      47.733  25.769  27.623  1.00  0.00     0.344 HD
ATOM     11  H   UNL     1      48.165  24.936  28.069  1.00  0.00     0.344 HD
ENDBRANCH   7   8
ENDBRANCH   6   7
ENDBRANCH   3   6
ENDBRANCH   1   2
BRANCH   1  12
ATOM     12  O   UNL     1      45.933  20.188  32.230  1.00  0.00    -0.484 OA
BRANCH  12  13
ATOM     13  C   UNL     1      46.868  20.544  33.348  1.00  0.00     0.120 A 
ATOM     14  C   UNL     1      48.297  20.887  33.050  1.00  0.00     0.047 A 
ATOM     15  C   UNL     1      46.372  20.556  34.764  1.00  0.00     0.047 A 
ATOM     16  C   UNL     1      49.232  21.243  34.168  1.00  0.00     0.016 A 
ATOM     17  C   UNL     1      47.307  20.912  35.882  1.00  0.00     0.016 A 
ATOM     18  C   UNL     1      48.736  21.255  35.584  1.00  0.00     0.018 A 
BRANCH  18  19
ATOM     19  C   UNL     1      49.670  21.611  36.702  1.00  0.00     0.140 A 
ATOM     20  N   UNL     1      51.159  21.424  36.701  1.00  0.00    -0.210 NA
ATOM     21  N   UNL     1      49.281  22.217  38.019  1.00  0.00    -0.332 N 
ATOM     22  C   UNL     1      51.688  21.913  38.016  1.00  0.00     0.168 A 
ATOM     23  C   UNL     1      50.528  22.403  38.830  1.00  0.00     0.150 A 
ATOM     24  N   UNL     1      53.078  21.976  38.578  1.00  0.00    -0.276 N 
ATOM     25  C   UNL     1      50.757  22.956  40.206  1.00  0.00     0.282 A 
ATOM     26  C   UNL     1      53.308  22.529  39.953  1.00  0.00     0.332 A 
ATOM     27  O   UNL     1      49.596  23.446  41.020  1.00  0.00    -0.267 OA
ATOM     28  N   UNL     1      52.147  23.019  40.768  1.00  0.00    -0.258 N 
ATOM     29  O   UNL     1      54.697  22.592  40.515  1.00  0.00    -0.247 OA
ATOM     30  H   UNL     1      48.353  22.454  38.304  1.00  0.00     0.168 HD
BRANCH  24  31
ATOM     31  C   UNL     1      54.239  21.486  37.763  1.00  0.00     0.129 C 
BRANCH  31  32
ATOM     32  C   UNL     1      54.706  22.273  36.575  1.00  0.00     0.019 C 
ATOM     33  C   UNL     1      56.156  22.262  36.191  1.00  0.00     0.006 C 
ENDBRANCH  31  32
ENDBRANCH  24  31
BRANCH  28  34
ATOM     34  C   UNL     1      52.375  23.572  42.143  1.00  0.00     0.131 C 
BRANCH  34  35
ATOM     35  C   UNL     1      53.134  24.853  42.321  1.00  0.00     0.019 C 
ATOM     36  C   UNL     1      52.408  26.106  42.714  1.00  0.00     0.006 C 
ENDBRANCH  34  35
ENDBRANCH  28  34
ENDBRANCH  18  19
ENDBRANCH  12  13
ENDBRANCH   1  12
TORSDOF 11
ENDMDL
