REMARK SMILES CCCn1c(=O)c2[nH]c(-c3ccc(OCC(=O)NCC[NH3+])cc3)nc2n(CCC)c1=O
REMARK SMILES IDX 15 1 16 2 18 3 17 4 19 6 20 7 21 8 14 12 13 13 12 14 22 15
REMARK SMILES IDX 11 16 23 17 10 18 9 19 24 20 8 21 25 22 7 23 26 24 5 25
REMARK SMILES IDX 30 26 6 27 4 28 31 29 27 31 28 32 29 33 3 34 2 35 1 36
REMARK H PARENT 18 5 21 9 21 10 21 11 8 30
REMARK INDEX MAP 7 1 5 2 4 3 6 4 39 5 3 6 1 7 2 8 34 9 35 10 36 11 8 12 9 13
REMARK INDEX MAP 10 14 11 15 12 16 13 17 14 18 15 19 16 20 17 21 18 22 19 23
REMARK INDEX MAP 20 24 21 25 22 26 24 27 25 28 26 29 46 30 23 31 27 32 29 33
REMARK INDEX MAP 28 34 30 35 31 36
ROOT
ATOM      1  C   UNL     1       5.986   0.208   0.000  1.00  0.00     0.329 C 
ENDROOT
BRANCH   1   2
ATOM      2  C   UNL     1       7.467   0.440   0.000  1.00  0.00     0.258 C 
ATOM      3  N   UNL     1       8.410  -0.727   0.000  1.00  0.00    -0.347 N 
ATOM      4  O   UNL     1       8.007   1.840   0.000  1.00  0.00    -0.271 OA
ATOM      5  H   UNL     1       8.050  -1.660   0.000  1.00  0.00     0.163 HD
BRANCH   3   6
ATOM      6  C   UNL     1       9.892  -0.494   0.000  1.00  0.00     0.177 C 
BRANCH   6   7
ATOM      7  C   UNL     1      10.834  -1.661   0.000  1.00  0.00     0.280 C 
BRANCH   7   8
ATOM      8  N   UNL     1      12.316  -1.428   0.000  1.00  0.00    -0.356 N 
ATOM      9  H   UNL     1      12.499  -0.445   0.000  1.00  0.00     0.344 HD
ATOM     10  H   UNL     1      13.013  -2.145   0.000  1.00  0.00     0.344 HD
ATOM     11  H   UNL     1      13.273  -1.139   0.000  1.00  0.00     0.344 HD
ENDBRANCH   7   8
ENDBRANCH   6   7
ENDBRANCH   3   6
ENDBRANCH   1   2
BRANCH   1  12
ATOM     12  O   UNL     1       5.043   1.375   0.000  1.00  0.00    -0.484 OA
BRANCH  12  13
ATOM     13  C   UNL     1       3.561   1.142   0.000  1.00  0.00     0.120 A 
ATOM     14  C   UNL     1       3.022  -0.258   0.000  1.00  0.00     0.047 A 
ATOM     15  C   UNL     1       2.619   2.309   0.000  1.00  0.00     0.047 A 
ATOM     16  C   UNL     1       1.540  -0.491   0.000  1.00  0.00     0.016 A 
ATOM     17  C   UNL     1       1.137   2.076   0.000  1.00  0.00     0.016 A 
ATOM     18  C   UNL     1       0.598   0.676   0.000  1.00  0.00     0.018 A 
BRANCH  18  19
ATOM     19  C   UNL     1      -0.884   0.444   0.000  1.00  0.00     0.140 A 
ATOM     20  N   UNL     1      -1.567  -0.892   0.000  1.00  0.00    -0.210 NA
ATOM     21  N   UNL     1      -1.944   1.506   0.000  1.00  0.00    -0.332 N 
ATOM     22  C   UNL     1      -3.048  -0.655   0.000  1.00  0.00     0.168 A 
ATOM     23  C   UNL     1      -3.281   0.826   0.000  1.00  0.00     0.150 A 
ATOM     24  N   UNL     1      -4.215  -1.598   0.000  1.00  0.00    -0.276 N 
ATOM     25  C   UNL     1      -4.681   1.366   0.000  1.00  0.00     0.282 A 
ATOM     26  C   UNL     1      -5.615  -1.059   0.000  1.00  0.00     0.332 A 
ATOM     27  O   UNL     1      -4.913   2.848   0.000  1.00  0.00    -0.267 OA
ATOM     28  N   UNL     1      -5.848   0.423   0.000  1.00  0.00    -0.258 N 
ATOM     29  O   UNL     1      -6.782  -2.001   0.000  1.00  0.00    -0.247 OA
ATOM     30  H   UNL     1      -1.786   2.493   0.000  1.00  0.00     0.168 HD
BRANCH  24  31
ATOM     31  C   UNL     1      -3.982  -3.080   0.000  1.00  0.00     0.129 C 
BRANCH  31  32
ATOM     32  C   UNL     1      -5.149  -4.022   0.000  1.00  0.00     0.019 C 
ATOM     33  C   UNL     1      -4.917  -5.504   0.000  1.00  0.00     0.006 C 
ENDBRANCH  31  32
ENDBRANCH  24  31
BRANCH  28  34
ATOM     34  C   UNL     1      -7.247   0.963   0.000  1.00  0.00     0.131 C 
BRANCH  34  35
ATOM     35  C   UNL     1      -7.480   2.445   0.000  1.00  0.00     0.019 C 
ATOM     36  C   UNL     1      -8.880   2.984   0.000  1.00  0.00     0.006 C 
ENDBRANCH  34  35
ENDBRANCH  28  34
ENDBRANCH  18  19
ENDBRANCH  12  13
ENDBRANCH   1  12
TORSDOF 11
