MODEL 1
REMARK minimizedAffinity -8.53218269
REMARK minimizedRMSD -1
REMARK SMILES CCCn1c(=O)c2[nH]c(-c3ccc(OCC(=O)NCC[NH3+])cc3)nc2n(CCC)c1=O
REMARK SMILES IDX 15 1 16 2 18 3 17 4 19 6 20 7 21 8 14 12 13 13 12 14 22 15
REMARK SMILES IDX 11 16 23 17 10 18 9 19 24 20 8 21 25 22 7 23 26 24 5 25
REMARK SMILES IDX 30 26 6 27 4 28 31 29 27 31 28 32 29 33 3 34 2 35 1 36
REMARK H PARENT 18 5 21 9 21 10 21 11 8 30
REMARK INDEX MAP 7 1 5 2 4 3 6 4 39 5 3 6 1 7 2 8 34 9 35 10 36 11 8 12 9 13
REMARK INDEX MAP 10 14 11 15 12 16 13 17 14 18 15 19 16 20 17 21 18 22 19 23
REMARK INDEX MAP 20 24 21 25 22 26 24 27 25 28 26 29 46 30 23 31 27 32 29 33
REMARK INDEX MAP 28 34 30 35 31 36
ROOT
ATOM      1  C   UNL     1      52.703  27.178  44.076  1.00  0.00     0.329 C 
ENDROOT
BRANCH   1   2
ATOM      2  C   UNL     1      54.154  27.228  43.706  1.00  0.00     0.258 C 
ATOM      3  N   UNL     1      54.792  28.537  43.345  1.00  0.00    -0.347 N 
ATOM      4  O   UNL     1      54.970  25.968  43.696  1.00  0.00    -0.271 OA
ATOM      5  H   UNL     1      54.249  29.376  43.351  1.00  0.00     0.163 HD
BRANCH   3   6
ATOM      6  C   UNL     1      56.245  28.586  42.974  1.00  0.00     0.177 C 
BRANCH   6   7
ATOM      7  C   UNL     1      56.729  29.590  41.970  1.00  0.00     0.280 C 
BRANCH   7   8
ATOM      8  N   UNL     1      57.590  29.148  40.823  1.00  0.00    -0.356 N 
ATOM      9  H   UNL     1      57.742  28.161  40.881  1.00  0.00     0.344 HD
ATOM     10  H   UNL     1      57.954  29.747  40.111  1.00  0.00     0.344 HD
ATOM     11  H   UNL     1      58.152  28.727  40.112  1.00  0.00     0.344 HD
ENDBRANCH   7   8
ENDBRANCH   6   7
ENDBRANCH   3   6
ENDBRANCH   1   2
BRANCH   1  12
ATOM     12  O   UNL     1      52.009  25.855  44.219  1.00  0.00    -0.484 OA
BRANCH  12  13
ATOM     13  C   UNL     1      51.481  25.150  43.004  1.00  0.00     0.120 A 
ATOM     14  C   UNL     1      52.098  25.406  41.661  1.00  0.00     0.047 A 
ATOM     15  C   UNL     1      50.336  24.190  43.134  1.00  0.00     0.047 A 
ATOM     16  C   UNL     1      51.569  24.702  40.447  1.00  0.00     0.016 A 
ATOM     17  C   UNL     1      49.807  23.486  41.919  1.00  0.00     0.016 A 
ATOM     18  C   UNL     1      50.424  23.742  40.576  1.00  0.00     0.018 A 
BRANCH  18  19
ATOM     19  C   UNL     1      49.895  23.037  39.362  1.00  0.00     0.140 A 
ATOM     20  N   UNL     1      50.712  22.538  38.206  1.00  0.00    -0.210 NA
ATOM     21  N   UNL     1      48.457  22.706  39.090  1.00  0.00    -0.332 N 
ATOM     22  C   UNL     1      49.779  21.900  37.221  1.00  0.00     0.168 A 
ATOM     23  C   UNL     1      48.386  22.004  37.766  1.00  0.00     0.150 A 
ATOM     24  N   UNL     1      50.018  21.238  35.896  1.00  0.00    -0.276 N 
ATOM     25  C   UNL     1      47.231  21.445  36.988  1.00  0.00     0.282 A 
ATOM     26  C   UNL     1      48.864  20.679  35.117  1.00  0.00     0.332 A 
ATOM     27  O   UNL     1      45.838  21.549  37.535  1.00  0.00    -0.267 OA
ATOM     28  N   UNL     1      47.471  20.782  35.663  1.00  0.00    -0.258 N 
ATOM     29  O   UNL     1      49.103  20.016  33.793  1.00  0.00    -0.247 OA
ATOM     30  H   UNL     1      47.683  22.917  39.686  1.00  0.00     0.168 HD
BRANCH  24  31
ATOM     31  C   UNL     1      51.412  21.134  35.350  1.00  0.00     0.129 C 
BRANCH  31  32
ATOM     32  C   UNL     1      52.102  19.803  35.306  1.00  0.00     0.019 C 
ATOM     33  C   UNL     1      53.332  19.569  36.132  1.00  0.00     0.006 C 
ENDBRANCH  31  32
ENDBRANCH  24  31
BRANCH  28  34
ATOM     34  C   UNL     1      46.316  20.224  34.886  1.00  0.00     0.131 C 
BRANCH  34  35
ATOM     35  C   UNL     1      45.755  20.987  33.722  1.00  0.00     0.019 C 
ATOM     36  C   UNL     1      44.289  21.299  33.667  1.00  0.00     0.006 C 
ENDBRANCH  34  35
ENDBRANCH  28  34
ENDBRANCH  18  19
ENDBRANCH  12  13
ENDBRANCH   1  12
TORSDOF 11
ENDMDL
MODEL 2
REMARK minimizedAffinity -8.26099968
REMARK minimizedRMSD -1
REMARK SMILES CCCn1c(=O)c2[nH]c(-c3ccc(OCC(=O)NCC[NH3+])cc3)nc2n(CCC)c1=O
REMARK SMILES IDX 15 1 16 2 18 3 17 4 19 6 20 7 21 8 14 12 13 13 12 14 22 15
REMARK SMILES IDX 11 16 23 17 10 18 9 19 24 20 8 21 25 22 7 23 26 24 5 25
REMARK SMILES IDX 30 26 6 27 4 28 31 29 27 31 28 32 29 33 3 34 2 35 1 36
REMARK H PARENT 18 5 21 9 21 10 21 11 8 30
REMARK INDEX MAP 7 1 5 2 4 3 6 4 39 5 3 6 1 7 2 8 34 9 35 10 36 11 8 12 9 13
REMARK INDEX MAP 10 14 11 15 12 16 13 17 14 18 15 19 16 20 17 21 18 22 19 23
REMARK INDEX MAP 20 24 21 25 22 26 24 27 25 28 26 29 46 30 23 31 27 32 29 33
REMARK INDEX MAP 28 34 30 35 31 36
ROOT
ATOM      1  C   UNL     1      56.183  18.059  38.657  1.00  0.00     0.329 C 
ENDROOT
BRANCH   1   2
ATOM      2  C   UNL     1      56.093  18.373  40.120  1.00  0.00     0.258 C 
ATOM      3  N   UNL     1      55.106  19.391  40.611  1.00  0.00    -0.347 N 
ATOM      4  O   UNL     1      56.992  17.670  41.094  1.00  0.00    -0.271 OA
ATOM      5  H   UNL     1      54.507  19.859  39.961  1.00  0.00     0.163 HD
BRANCH   3   6
ATOM      6  C   UNL     1      55.017  19.705  42.075  1.00  0.00     0.177 C 
BRANCH   6   7
ATOM      7  C   UNL     1      53.688  20.022  42.694  1.00  0.00     0.280 C 
BRANCH   7   8
ATOM      8  N   UNL     1      52.474  20.175  41.826  1.00  0.00    -0.356 N 
ATOM      9  H   UNL     1      52.729  20.034  40.869  1.00  0.00     0.344 HD
ATOM     10  H   UNL     1      51.553  20.386  42.153  1.00  0.00     0.344 HD
ATOM     11  H   UNL     1      51.749  20.251  41.142  1.00  0.00     0.344 HD
ENDBRANCH   7   8
ENDBRANCH   6   7
ENDBRANCH   3   6
ENDBRANCH   1   2
BRANCH   1  12
ATOM     12  O   UNL     1      56.247  19.172  37.652  1.00  0.00    -0.484 OA
BRANCH  12  13
ATOM     13  C   UNL     1      55.001  19.616  36.945  1.00  0.00     0.120 A 
ATOM     14  C   UNL     1      54.171  18.620  36.191  1.00  0.00     0.047 A 
ATOM     15  C   UNL     1      54.587  21.057  36.991  1.00  0.00     0.047 A 
ATOM     16  C   UNL     1      52.925  19.064  35.484  1.00  0.00     0.016 A 
ATOM     17  C   UNL     1      53.341  21.502  36.283  1.00  0.00     0.016 A 
ATOM     18  C   UNL     1      52.510  20.505  35.530  1.00  0.00     0.018 A 
BRANCH  18  19
ATOM     19  C   UNL     1      51.265  20.950  34.823  1.00  0.00     0.140 A 
ATOM     20  N   UNL     1      51.105  22.214  34.029  1.00  0.00    -0.210 NA
ATOM     21  N   UNL     1      49.959  20.212  34.784  1.00  0.00    -0.332 N 
ATOM     22  C   UNL     1      49.702  22.255  33.501  1.00  0.00     0.168 A 
ATOM     23  C   UNL     1      48.994  21.019  33.967  1.00  0.00     0.150 A 
ATOM     24  N   UNL     1      48.978  23.261  32.654  1.00  0.00    -0.276 N 
ATOM     25  C   UNL     1      47.561  20.786  33.587  1.00  0.00     0.282 A 
ATOM     26  C   UNL     1      47.546  23.029  32.275  1.00  0.00     0.332 A 
ATOM     27  O   UNL     1      46.854  19.549  34.054  1.00  0.00    -0.267 OA
ATOM     28  N   UNL     1      46.837  21.791  32.741  1.00  0.00    -0.258 N 
ATOM     29  O   UNL     1      46.821  24.033  31.429  1.00  0.00    -0.247 OA
ATOM     30  H   UNL     1      49.767  19.336  35.225  1.00  0.00     0.168 HD
BRANCH  24  31
ATOM     31  C   UNL     1      49.687  24.498  32.188  1.00  0.00     0.129 C 
BRANCH  31  32
ATOM     32  C   UNL     1      50.680  24.416  31.068  1.00  0.00     0.019 C 
ATOM     33  C   UNL     1      52.150  24.459  31.364  1.00  0.00     0.006 C 
ENDBRANCH  31  32
ENDBRANCH  24  31
BRANCH  28  34
ATOM     34  C   UNL     1      45.405  21.558  32.362  1.00  0.00     0.131 C 
BRANCH  34  35
ATOM     35  C   UNL     1      44.304  21.980  33.290  1.00  0.00     0.019 C 
ATOM     36  C   UNL     1      43.269  22.962  32.829  1.00  0.00     0.006 C 
ENDBRANCH  34  35
ENDBRANCH  28  34
ENDBRANCH  18  19
ENDBRANCH  12  13
ENDBRANCH   1  12
TORSDOF 11
ENDMDL
MODEL 3
REMARK minimizedAffinity -8.18130779
REMARK minimizedRMSD -1
REMARK SMILES CCCn1c(=O)c2[nH]c(-c3ccc(OCC(=O)NCC[NH3+])cc3)nc2n(CCC)c1=O
REMARK SMILES IDX 15 1 16 2 18 3 17 4 19 6 20 7 21 8 14 12 13 13 12 14 22 15
REMARK SMILES IDX 11 16 23 17 10 18 9 19 24 20 8 21 25 22 7 23 26 24 5 25
REMARK SMILES IDX 30 26 6 27 4 28 31 29 27 31 28 32 29 33 3 34 2 35 1 36
REMARK H PARENT 18 5 21 9 21 10 21 11 8 30
REMARK INDEX MAP 7 1 5 2 4 3 6 4 39 5 3 6 1 7 2 8 34 9 35 10 36 11 8 12 9 13
REMARK INDEX MAP 10 14 11 15 12 16 13 17 14 18 15 19 16 20 17 21 18 22 19 23
REMARK INDEX MAP 20 24 21 25 22 26 24 27 25 28 26 29 46 30 23 31 27 32 29 33
REMARK INDEX MAP 28 34 30 35 31 36
ROOT
ATOM      1  C   UNL     1      56.141  18.363  38.807  1.00  0.00     0.329 C 
ENDROOT
BRANCH   1   2
ATOM      2  C   UNL     1      57.219  17.382  39.158  1.00  0.00     0.258 C 
ATOM      3  N   UNL     1      57.128  16.588  40.428  1.00  0.00    -0.347 N 
ATOM      4  O   UNL     1      58.391  17.195  38.240  1.00  0.00    -0.271 OA
ATOM      5  H   UNL     1      56.347  16.713  41.040  1.00  0.00     0.163 HD
BRANCH   3   6
ATOM      6  C   UNL     1      58.207  15.607  40.778  1.00  0.00     0.177 C 
BRANCH   6   7
ATOM      7  C   UNL     1      58.191  14.230  40.183  1.00  0.00     0.280 C 
BRANCH   7   8
ATOM      8  N   UNL     1      56.975  13.745  39.451  1.00  0.00    -0.356 N 
ATOM      9  H   UNL     1      56.276  14.460  39.455  1.00  0.00     0.344 HD
ATOM     10  H   UNL     1      56.879  12.845  39.025  1.00  0.00     0.344 HD
ATOM     11  H   UNL     1      56.110  13.544  38.992  1.00  0.00     0.344 HD
ENDBRANCH   7   8
ENDBRANCH   6   7
ENDBRANCH   3   6
ENDBRANCH   1   2
BRANCH   1  12
ATOM     12  O   UNL     1      56.213  19.128  37.519  1.00  0.00    -0.484 OA
BRANCH  12  13
ATOM     13  C   UNL     1      54.951  19.570  36.837  1.00  0.00     0.120 A 
ATOM     14  C   UNL     1      54.124  18.577  36.075  1.00  0.00     0.047 A 
ATOM     15  C   UNL     1      54.518  21.003  36.918  1.00  0.00     0.047 A 
ATOM     16  C   UNL     1      52.863  19.019  35.393  1.00  0.00     0.016 A 
ATOM     17  C   UNL     1      53.256  21.445  36.237  1.00  0.00     0.016 A 
ATOM     18  C   UNL     1      52.429  20.452  35.474  1.00  0.00     0.018 A 
BRANCH  18  19
ATOM     19  C   UNL     1      51.168  20.894  34.793  1.00  0.00     0.140 A 
ATOM     20  N   UNL     1      50.965  22.195  34.073  1.00  0.00    -0.210 NA
ATOM     21  N   UNL     1      49.888  20.115  34.712  1.00  0.00    -0.332 N 
ATOM     22  C   UNL     1      49.560  22.218  33.547  1.00  0.00     0.168 A 
ATOM     23  C   UNL     1      48.895  20.934  33.942  1.00  0.00     0.150 A 
ATOM     24  N   UNL     1      48.801  23.245  32.759  1.00  0.00    -0.276 N 
ATOM     25  C   UNL     1      47.470  20.674  33.550  1.00  0.00     0.282 A 
ATOM     26  C   UNL     1      47.376  22.986  32.367  1.00  0.00     0.332 A 
ATOM     27  O   UNL     1      46.806  19.389  33.946  1.00  0.00    -0.267 OA
ATOM     28  N   UNL     1      46.711  21.701  32.762  1.00  0.00    -0.258 N 
ATOM     29  O   UNL     1      46.617  24.012  31.579  1.00  0.00    -0.247 OA
ATOM     30  H   UNL     1      49.727  19.209  35.103  1.00  0.00     0.168 HD
BRANCH  24  31
ATOM     31  C   UNL     1      49.466  24.530  32.364  1.00  0.00     0.129 C 
BRANCH  31  32
ATOM     32  C   UNL     1      50.126  24.650  31.023  1.00  0.00     0.019 C 
ATOM     33  C   UNL     1      51.582  24.324  30.871  1.00  0.00     0.006 C 
ENDBRANCH  31  32
ENDBRANCH  24  31
BRANCH  28  34
ATOM     34  C   UNL     1      45.287  21.441  32.370  1.00  0.00     0.131 C 
BRANCH  34  35
ATOM     35  C   UNL     1      44.170  21.843  33.288  1.00  0.00     0.019 C 
ATOM     36  C   UNL     1      43.349  23.061  32.982  1.00  0.00     0.006 C 
ENDBRANCH  34  35
ENDBRANCH  28  34
ENDBRANCH  18  19
ENDBRANCH  12  13
ENDBRANCH   1  12
TORSDOF 11
ENDMDL
MODEL 4
REMARK minimizedAffinity -8.04232216
REMARK minimizedRMSD -1
REMARK SMILES CCCn1c(=O)c2[nH]c(-c3ccc(OCC(=O)NCC[NH3+])cc3)nc2n(CCC)c1=O
REMARK SMILES IDX 15 1 16 2 18 3 17 4 19 6 20 7 21 8 14 12 13 13 12 14 22 15
REMARK SMILES IDX 11 16 23 17 10 18 9 19 24 20 8 21 25 22 7 23 26 24 5 25
REMARK SMILES IDX 30 26 6 27 4 28 31 29 27 31 28 32 29 33 3 34 2 35 1 36
REMARK H PARENT 18 5 21 9 21 10 21 11 8 30
REMARK INDEX MAP 7 1 5 2 4 3 6 4 39 5 3 6 1 7 2 8 34 9 35 10 36 11 8 12 9 13
REMARK INDEX MAP 10 14 11 15 12 16 13 17 14 18 15 19 16 20 17 21 18 22 19 23
REMARK INDEX MAP 20 24 21 25 22 26 24 27 25 28 26 29 46 30 23 31 27 32 29 33
REMARK INDEX MAP 28 34 30 35 31 36
ROOT
ATOM      1  C   UNL     1      56.525  27.681  31.859  1.00  0.00     0.329 C 
ENDROOT
BRANCH   1   2
ATOM      2  C   UNL     1      57.162  27.276  33.154  1.00  0.00     0.258 C 
ATOM      3  N   UNL     1      56.988  28.130  34.375  1.00  0.00    -0.347 N 
ATOM      4  O   UNL     1      57.974  26.017  33.229  1.00  0.00    -0.271 OA
ATOM      5  H   UNL     1      56.447  28.970  34.325  1.00  0.00     0.163 HD
BRANCH   3   6
ATOM      6  C   UNL     1      57.626  27.725  35.671  1.00  0.00     0.177 C 
BRANCH   6   7
ATOM      7  C   UNL     1      58.143  28.772  36.612  1.00  0.00     0.280 C 
BRANCH   7   8
ATOM      8  N   UNL     1      58.289  30.191  36.147  1.00  0.00    -0.356 N 
ATOM      9  H   UNL     1      58.000  30.260  35.192  1.00  0.00     0.344 HD
ATOM     10  H   UNL     1      58.625  30.950  36.705  1.00  0.00     0.344 HD
ATOM     11  H   UNL     1      58.339  31.092  35.716  1.00  0.00     0.344 HD
ENDBRANCH   7   8
ENDBRANCH   6   7
ENDBRANCH   3   6
ENDBRANCH   1   2
BRANCH   1  12
ATOM     12  O   UNL     1      55.970  26.636  30.936  1.00  0.00    -0.484 OA
BRANCH  12  13
ATOM     13  C   UNL     1      54.703  25.917  31.292  1.00  0.00     0.120 A 
ATOM     14  C   UNL     1      53.469  26.115  30.461  1.00  0.00     0.047 A 
ATOM     15  C   UNL     1      54.669  25.001  32.479  1.00  0.00     0.047 A 
ATOM     16  C   UNL     1      52.202  25.396  30.818  1.00  0.00     0.016 A 
ATOM     17  C   UNL     1      53.401  24.282  32.836  1.00  0.00     0.016 A 
ATOM     18  C   UNL     1      52.168  24.480  32.005  1.00  0.00     0.018 A 
BRANCH  18  19
ATOM     19  C   UNL     1      50.901  23.760  32.362  1.00  0.00     0.140 A 
ATOM     20  N   UNL     1      50.739  22.756  33.465  1.00  0.00    -0.210 NA
ATOM     21  N   UNL     1      49.574  23.918  31.680  1.00  0.00    -0.332 N 
ATOM     22  C   UNL     1      49.312  22.294  33.464  1.00  0.00     0.168 A 
ATOM     23  C   UNL     1      48.592  23.011  32.361  1.00  0.00     0.150 A 
ATOM     24  N   UNL     1      48.575  21.311  34.326  1.00  0.00    -0.276 N 
ATOM     25  C   UNL     1      47.135  22.747  32.119  1.00  0.00     0.282 A 
ATOM     26  C   UNL     1      47.118  21.047  34.084  1.00  0.00     0.332 A 
ATOM     27  O   UNL     1      46.417  23.466  31.016  1.00  0.00    -0.267 OA
ATOM     28  N   UNL     1      46.398  21.765  32.981  1.00  0.00    -0.258 N 
ATOM     29  O   UNL     1      46.381  20.065  34.945  1.00  0.00    -0.247 OA
ATOM     30  H   UNL     1      49.379  24.521  30.907  1.00  0.00     0.168 HD
BRANCH  24  31
ATOM     31  C   UNL     1      49.295  20.593  35.429  1.00  0.00     0.129 C 
BRANCH  31  32
ATOM     32  C   UNL     1      50.406  19.641  35.103  1.00  0.00     0.019 C 
ATOM     33  C   UNL     1      51.818  19.977  35.483  1.00  0.00     0.006 C 
ENDBRANCH  31  32
ENDBRANCH  24  31
BRANCH  28  34
ATOM     34  C   UNL     1      44.942  21.501  32.738  1.00  0.00     0.131 C 
BRANCH  34  35
ATOM     35  C   UNL     1      43.905  22.399  33.345  1.00  0.00     0.019 C 
ATOM     36  C   UNL     1      42.963  23.162  32.461  1.00  0.00     0.006 C 
ENDBRANCH  34  35
ENDBRANCH  28  34
ENDBRANCH  18  19
ENDBRANCH  12  13
ENDBRANCH   1  12
TORSDOF 11
ENDMDL
MODEL 5
REMARK minimizedAffinity -7.84676743
REMARK minimizedRMSD -1
REMARK SMILES CCCn1c(=O)c2[nH]c(-c3ccc(OCC(=O)NCC[NH3+])cc3)nc2n(CCC)c1=O
REMARK SMILES IDX 15 1 16 2 18 3 17 4 19 6 20 7 21 8 14 12 13 13 12 14 22 15
REMARK SMILES IDX 11 16 23 17 10 18 9 19 24 20 8 21 25 22 7 23 26 24 5 25
REMARK SMILES IDX 30 26 6 27 4 28 31 29 27 31 28 32 29 33 3 34 2 35 1 36
REMARK H PARENT 18 5 21 9 21 10 21 11 8 30
REMARK INDEX MAP 7 1 5 2 4 3 6 4 39 5 3 6 1 7 2 8 34 9 35 10 36 11 8 12 9 13
REMARK INDEX MAP 10 14 11 15 12 16 13 17 14 18 15 19 16 20 17 21 18 22 19 23
REMARK INDEX MAP 20 24 21 25 22 26 24 27 25 28 26 29 46 30 23 31 27 32 29 33
REMARK INDEX MAP 28 34 30 35 31 36
ROOT
ATOM      1  C   UNL     1      57.484  27.657  33.804  1.00  0.00     0.329 C 
ENDROOT
BRANCH   1   2
ATOM      2  C   UNL     1      58.184  28.025  35.078  1.00  0.00     0.258 C 
ATOM      3  N   UNL     1      58.087  29.423  35.612  1.00  0.00    -0.347 N 
ATOM      4  O   UNL     1      58.983  26.993  35.819  1.00  0.00    -0.271 OA
ATOM      5  H   UNL     1      57.555  30.111  35.118  1.00  0.00     0.163 HD
BRANCH   3   6
ATOM      6  C   UNL     1      58.788  29.790  36.887  1.00  0.00     0.177 C 
BRANCH   6   7
ATOM      7  C   UNL     1      58.373  29.153  38.180  1.00  0.00     0.280 C 
BRANCH   7   8
ATOM      8  N   UNL     1      58.898  27.798  38.550  1.00  0.00    -0.356 N 
ATOM      9  H   UNL     1      59.507  27.467  37.829  1.00  0.00     0.344 HD
ATOM     10  H   UNL     1      58.675  27.302  39.389  1.00  0.00     0.344 HD
ATOM     11  H   UNL     1      59.317  26.899  38.678  1.00  0.00     0.344 HD
ENDBRANCH   7   8
ENDBRANCH   6   7
ENDBRANCH   3   6
ENDBRANCH   1   2
BRANCH   1  12
ATOM     12  O   UNL     1      57.355  26.216  33.407  1.00  0.00    -0.484 OA
BRANCH  12  13
ATOM     13  C   UNL     1      55.999  25.578  33.332  1.00  0.00     0.120 A 
ATOM     14  C   UNL     1      55.569  24.604  34.389  1.00  0.00     0.047 A 
ATOM     15  C   UNL     1      55.074  25.913  32.200  1.00  0.00     0.047 A 
ATOM     16  C   UNL     1      54.214  23.966  34.314  1.00  0.00     0.016 A 
ATOM     17  C   UNL     1      53.719  25.275  32.125  1.00  0.00     0.016 A 
ATOM     18  C   UNL     1      53.289  24.301  33.182  1.00  0.00     0.018 A 
BRANCH  18  19
ATOM     19  C   UNL     1      51.934  23.663  33.106  1.00  0.00     0.140 A 
ATOM     20  N   UNL     1      50.758  24.181  32.332  1.00  0.00    -0.210 NA
ATOM     21  N   UNL     1      51.515  22.396  33.792  1.00  0.00    -0.332 N 
ATOM     22  C   UNL     1      49.613  23.234  32.538  1.00  0.00     0.168 A 
ATOM     23  C   UNL     1      50.081  22.131  33.440  1.00  0.00     0.150 A 
ATOM     24  N   UNL     1      48.205  23.234  32.021  1.00  0.00    -0.276 N 
ATOM     25  C   UNL     1      49.141  21.027  33.825  1.00  0.00     0.282 A 
ATOM     26  C   UNL     1      47.264  22.130  32.406  1.00  0.00     0.332 A 
ATOM     27  O   UNL     1      49.609  19.924  34.728  1.00  0.00    -0.267 OA
ATOM     28  N   UNL     1      47.732  21.027  33.308  1.00  0.00    -0.258 N 
ATOM     29  O   UNL     1      45.857  22.130  31.889  1.00  0.00    -0.247 OA
ATOM     30  H   UNL     1      52.091  21.828  34.379  1.00  0.00     0.168 HD
BRANCH  24  31
ATOM     31  C   UNL     1      47.737  24.337  31.119  1.00  0.00     0.129 C 
BRANCH  31  32
ATOM     32  C   UNL     1      47.707  24.129  29.634  1.00  0.00     0.019 C 
ATOM     33  C   UNL     1      46.400  24.165  28.898  1.00  0.00     0.006 C 
ENDBRANCH  31  32
ENDBRANCH  24  31
BRANCH  28  34
ATOM     34  C   UNL     1      46.793  19.923  33.694  1.00  0.00     0.131 C 
BRANCH  34  35
ATOM     35  C   UNL     1      46.392  18.891  32.682  1.00  0.00     0.019 C 
ATOM     36  C   UNL     1      45.327  17.888  33.015  1.00  0.00     0.006 C 
ENDBRANCH  34  35
ENDBRANCH  28  34
ENDBRANCH  18  19
ENDBRANCH  12  13
ENDBRANCH   1  12
TORSDOF 11
ENDMDL
MODEL 6
REMARK minimizedAffinity -7.79410172
REMARK minimizedRMSD -1
REMARK SMILES CCCn1c(=O)c2[nH]c(-c3ccc(OCC(=O)NCC[NH3+])cc3)nc2n(CCC)c1=O
REMARK SMILES IDX 15 1 16 2 18 3 17 4 19 6 20 7 21 8 14 12 13 13 12 14 22 15
REMARK SMILES IDX 11 16 23 17 10 18 9 19 24 20 8 21 25 22 7 23 26 24 5 25
REMARK SMILES IDX 30 26 6 27 4 28 31 29 27 31 28 32 29 33 3 34 2 35 1 36
REMARK H PARENT 18 5 21 9 21 10 21 11 8 30
REMARK INDEX MAP 7 1 5 2 4 3 6 4 39 5 3 6 1 7 2 8 34 9 35 10 36 11 8 12 9 13
REMARK INDEX MAP 10 14 11 15 12 16 13 17 14 18 15 19 16 20 17 21 18 22 19 23
REMARK INDEX MAP 20 24 21 25 22 26 24 27 25 28 26 29 46 30 23 31 27 32 29 33
REMARK INDEX MAP 28 34 30 35 31 36
ROOT
ATOM      1  C   UNL     1      57.866  26.349  32.046  1.00  0.00     0.329 C 
ENDROOT
BRANCH   1   2
ATOM      2  C   UNL     1      58.340  25.882  30.702  1.00  0.00     0.258 C 
ATOM      3  N   UNL     1      58.611  24.426  30.465  1.00  0.00    -0.347 N 
ATOM      4  O   UNL     1      58.543  26.873  29.593  1.00  0.00    -0.271 OA
ATOM      5  H   UNL     1      58.476  23.766  31.204  1.00  0.00     0.163 HD
BRANCH   3   6
ATOM      6  C   UNL     1      59.085  23.960  29.120  1.00  0.00     0.177 C 
BRANCH   6   7
ATOM      7  C   UNL     1      58.398  22.813  28.440  1.00  0.00     0.280 C 
BRANCH   7   8
ATOM      8  N   UNL     1      58.632  21.410  28.917  1.00  0.00    -0.356 N 
ATOM      9  H   UNL     1      59.266  21.422  29.690  1.00  0.00     0.344 HD
ATOM     10  H   UNL     1      58.217  20.590  28.523  1.00  0.00     0.344 HD
ATOM     11  H   UNL     1      58.870  20.531  29.329  1.00  0.00     0.344 HD
ENDBRANCH   7   8
ENDBRANCH   6   7
ENDBRANCH   3   6
ENDBRANCH   1   2
BRANCH   1  12
ATOM     12  O   UNL     1      56.563  27.082  32.170  1.00  0.00    -0.484 OA
BRANCH  12  13
ATOM     13  C   UNL     1      55.283  26.316  32.323  1.00  0.00     0.120 A 
ATOM     14  C   UNL     1      54.347  26.178  31.159  1.00  0.00     0.047 A 
ATOM     15  C   UNL     1      54.938  25.688  33.641  1.00  0.00     0.047 A 
ATOM     16  C   UNL     1      53.066  25.412  31.312  1.00  0.00     0.016 A 
ATOM     17  C   UNL     1      53.658  24.922  33.795  1.00  0.00     0.016 A 
ATOM     18  C   UNL     1      52.722  24.784  32.630  1.00  0.00     0.018 A 
BRANCH  18  19
ATOM     19  C   UNL     1      51.442  24.018  32.784  1.00  0.00     0.140 A 
ATOM     20  N   UNL     1      51.188  22.916  33.770  1.00  0.00    -0.210 NA
ATOM     21  N   UNL     1      50.191  24.218  31.981  1.00  0.00    -0.332 N 
ATOM     22  C   UNL     1      49.780  22.436  33.576  1.00  0.00     0.168 A 
ATOM     23  C   UNL     1      49.164  23.240  32.470  1.00  0.00     0.150 A 
ATOM     24  N   UNL     1      48.980  21.369  34.263  1.00  0.00    -0.276 N 
ATOM     25  C   UNL     1      47.747  22.979  32.051  1.00  0.00     0.282 A 
ATOM     26  C   UNL     1      47.563  21.107  33.844  1.00  0.00     0.332 A 
ATOM     27  O   UNL     1      47.132  23.784  30.945  1.00  0.00    -0.267 OA
ATOM     28  N   UNL     1      46.947  21.912  32.738  1.00  0.00    -0.258 N 
ATOM     29  O   UNL     1      46.762  20.041  34.531  1.00  0.00    -0.247 OA
ATOM     30  H   UNL     1      50.064  24.886  31.248  1.00  0.00     0.168 HD
BRANCH  24  31
ATOM     31  C   UNL     1      49.596  20.564  35.369  1.00  0.00     0.129 C 
BRANCH  31  32
ATOM     32  C   UNL     1      50.696  19.591  35.065  1.00  0.00     0.019 C 
ATOM     33  C   UNL     1      52.097  19.877  35.518  1.00  0.00     0.006 C 
ENDBRANCH  31  32
ENDBRANCH  24  31
BRANCH  28  34
ATOM     34  C   UNL     1      45.531  21.651  32.319  1.00  0.00     0.131 C 
BRANCH  34  35
ATOM     35  C   UNL     1      44.397  22.033  33.224  1.00  0.00     0.019 C 
ATOM     36  C   UNL     1      43.342  22.985  32.744  1.00  0.00     0.006 C 
ENDBRANCH  34  35
ENDBRANCH  28  34
ENDBRANCH  18  19
ENDBRANCH  12  13
ENDBRANCH   1  12
TORSDOF 11
ENDMDL
MODEL 7
REMARK minimizedAffinity -7.79353046
REMARK minimizedRMSD -1
REMARK SMILES CCCn1c(=O)c2[nH]c(-c3ccc(OCC(=O)NCC[NH3+])cc3)nc2n(CCC)c1=O
REMARK SMILES IDX 15 1 16 2 18 3 17 4 19 6 20 7 21 8 14 12 13 13 12 14 22 15
REMARK SMILES IDX 11 16 23 17 10 18 9 19 24 20 8 21 25 22 7 23 26 24 5 25
REMARK SMILES IDX 30 26 6 27 4 28 31 29 27 31 28 32 29 33 3 34 2 35 1 36
REMARK H PARENT 18 5 21 9 21 10 21 11 8 30
REMARK INDEX MAP 7 1 5 2 4 3 6 4 39 5 3 6 1 7 2 8 34 9 35 10 36 11 8 12 9 13
REMARK INDEX MAP 10 14 11 15 12 16 13 17 14 18 15 19 16 20 17 21 18 22 19 23
REMARK INDEX MAP 20 24 21 25 22 26 24 27 25 28 26 29 46 30 23 31 27 32 29 33
REMARK INDEX MAP 28 34 30 35 31 36
ROOT
ATOM      1  C   UNL     1      58.058  26.514  30.671  1.00  0.00     0.329 C 
ENDROOT
BRANCH   1   2
ATOM      2  C   UNL     1      58.180  25.665  29.441  1.00  0.00     0.258 C 
ATOM      3  N   UNL     1      57.407  24.384  29.333  1.00  0.00    -0.347 N 
ATOM      4  O   UNL     1      59.077  26.097  28.317  1.00  0.00    -0.271 OA
ATOM      5  H   UNL     1      56.810  24.096  30.081  1.00  0.00     0.163 HD
BRANCH   3   6
ATOM      6  C   UNL     1      57.530  23.535  28.102  1.00  0.00     0.177 C 
BRANCH   6   7
ATOM      7  C   UNL     1      58.669  22.569  27.968  1.00  0.00     0.280 C 
BRANCH   7   8
ATOM      8  N   UNL     1      58.717  21.342  28.830  1.00  0.00    -0.356 N 
ATOM      9  H   UNL     1      57.917  21.325  29.430  1.00  0.00     0.344 HD
ATOM     10  H   UNL     1      59.436  20.648  28.807  1.00  0.00     0.344 HD
ATOM     11  H   UNL     1      58.630  20.569  29.458  1.00  0.00     0.344 HD
ENDBRANCH   7   8
ENDBRANCH   6   7
ENDBRANCH   3   6
ENDBRANCH   1   2
BRANCH   1  12
ATOM     12  O   UNL     1      56.794  27.278  30.933  1.00  0.00    -0.484 OA
BRANCH  12  13
ATOM     13  C   UNL     1      55.529  26.543  31.267  1.00  0.00     0.120 A 
ATOM     14  C   UNL     1      55.433  25.756  32.541  1.00  0.00     0.047 A 
ATOM     15  C   UNL     1      54.362  26.596  30.328  1.00  0.00     0.047 A 
ATOM     16  C   UNL     1      54.169  25.022  32.875  1.00  0.00     0.016 A 
ATOM     17  C   UNL     1      53.097  25.861  30.662  1.00  0.00     0.016 A 
ATOM     18  C   UNL     1      53.001  25.074  31.936  1.00  0.00     0.018 A 
BRANCH  18  19
ATOM     19  C   UNL     1      51.736  24.340  32.269  1.00  0.00     0.140 A 
ATOM     20  N   UNL     1      51.560  23.346  33.379  1.00  0.00    -0.210 NA
ATOM     21  N   UNL     1      50.425  24.470  31.552  1.00  0.00    -0.332 N 
ATOM     22  C   UNL     1      50.141  22.863  33.348  1.00  0.00     0.168 A 
ATOM     23  C   UNL     1      49.439  23.556  32.219  1.00  0.00     0.150 A 
ATOM     24  N   UNL     1      49.397  21.879  34.202  1.00  0.00    -0.276 N 
ATOM     25  C   UNL     1      47.993  23.268  31.943  1.00  0.00     0.282 A 
ATOM     26  C   UNL     1      47.951  21.590  33.927  1.00  0.00     0.332 A 
ATOM     27  O   UNL     1      47.292  23.963  30.813  1.00  0.00    -0.267 OA
ATOM     28  N   UNL     1      47.249  22.284  32.797  1.00  0.00    -0.258 N 
ATOM     29  O   UNL     1      47.206  20.607  34.780  1.00  0.00    -0.247 OA
ATOM     30  H   UNL     1      50.241  25.061  30.767  1.00  0.00     0.168 HD
BRANCH  24  31
ATOM     31  C   UNL     1      50.099  21.184  35.331  1.00  0.00     0.129 C 
BRANCH  31  32
ATOM     32  C   UNL     1      50.711  19.833  35.115  1.00  0.00     0.019 C 
ATOM     33  C   UNL     1      52.176  19.624  35.361  1.00  0.00     0.006 C 
ENDBRANCH  31  32
ENDBRANCH  24  31
BRANCH  28  34
ATOM     34  C   UNL     1      45.803  21.996  32.521  1.00  0.00     0.131 C 
BRANCH  34  35
ATOM     35  C   UNL     1      44.759  23.027  32.832  1.00  0.00     0.019 C 
ATOM     36  C   UNL     1      43.312  22.637  32.886  1.00  0.00     0.006 C 
ENDBRANCH  34  35
ENDBRANCH  28  34
ENDBRANCH  18  19
ENDBRANCH  12  13
ENDBRANCH   1  12
TORSDOF 11
ENDMDL
MODEL 8
REMARK minimizedAffinity -7.78446198
REMARK minimizedRMSD -1
REMARK SMILES CCCn1c(=O)c2[nH]c(-c3ccc(OCC(=O)NCC[NH3+])cc3)nc2n(CCC)c1=O
REMARK SMILES IDX 15 1 16 2 18 3 17 4 19 6 20 7 21 8 14 12 13 13 12 14 22 15
REMARK SMILES IDX 11 16 23 17 10 18 9 19 24 20 8 21 25 22 7 23 26 24 5 25
REMARK SMILES IDX 30 26 6 27 4 28 31 29 27 31 28 32 29 33 3 34 2 35 1 36
REMARK H PARENT 18 5 21 9 21 10 21 11 8 30
REMARK INDEX MAP 7 1 5 2 4 3 6 4 39 5 3 6 1 7 2 8 34 9 35 10 36 11 8 12 9 13
REMARK INDEX MAP 10 14 11 15 12 16 13 17 14 18 15 19 16 20 17 21 18 22 19 23
REMARK INDEX MAP 20 24 21 25 22 26 24 27 25 28 26 29 46 30 23 31 27 32 29 33
REMARK INDEX MAP 28 34 30 35 31 36
ROOT
ATOM      1  C   UNL     1      56.797  19.238  38.872  1.00  0.00     0.329 C 
ENDROOT
BRANCH   1   2
ATOM      2  C   UNL     1      56.641  19.029  40.348  1.00  0.00     0.258 C 
ATOM      3  N   UNL     1      55.277  19.072  40.973  1.00  0.00    -0.347 N 
ATOM      4  O   UNL     1      57.849  18.775  41.202  1.00  0.00    -0.271 OA
ATOM      5  H   UNL     1      54.472  19.241  40.404  1.00  0.00     0.163 HD
BRANCH   3   6
ATOM      6  C   UNL     1      55.122  18.863  42.451  1.00  0.00     0.177 C 
BRANCH   6   7
ATOM      7  C   UNL     1      55.831  17.726  43.125  1.00  0.00     0.280 C 
BRANCH   7   8
ATOM      8  N   UNL     1      56.190  16.497  42.342  1.00  0.00    -0.356 N 
ATOM      9  H   UNL     1      55.886  16.603  41.396  1.00  0.00     0.344 HD
ATOM     10  H   UNL     1      56.662  15.696  42.711  1.00  0.00     0.344 HD
ATOM     11  H   UNL     1      56.371  15.741  41.714  1.00  0.00     0.344 HD
ENDBRANCH   7   8
ENDBRANCH   6   7
ENDBRANCH   3   6
ENDBRANCH   1   2
BRANCH   1  12
ATOM     12  O   UNL     1      55.961  18.448  37.909  1.00  0.00    -0.484 OA
BRANCH  12  13
ATOM     13  C   UNL     1      54.877  19.126  37.124  1.00  0.00     0.120 A 
ATOM     14  C   UNL     1      53.985  18.320  36.227  1.00  0.00     0.047 A 
ATOM     15  C   UNL     1      54.687  20.609  37.236  1.00  0.00     0.047 A 
ATOM     16  C   UNL     1      52.901  18.998  35.442  1.00  0.00     0.016 A 
ATOM     17  C   UNL     1      53.603  21.287  36.451  1.00  0.00     0.016 A 
ATOM     18  C   UNL     1      52.711  20.481  35.554  1.00  0.00     0.018 A 
BRANCH  18  19
ATOM     19  C   UNL     1      51.627  21.160  34.770  1.00  0.00     0.140 A 
ATOM     20  N   UNL     1      50.155  20.897  34.890  1.00  0.00    -0.210 NA
ATOM     21  N   UNL     1      51.824  22.220  33.726  1.00  0.00    -0.332 N 
ATOM     22  C   UNL     1      49.443  21.795  33.922  1.00  0.00     0.168 A 
ATOM     23  C   UNL     1      50.474  22.612  33.203  1.00  0.00     0.150 A 
ATOM     24  N   UNL     1      47.988  21.974  33.603  1.00  0.00    -0.276 N 
ATOM     25  C   UNL     1      50.052  23.609  32.164  1.00  0.00     0.282 A 
ATOM     26  C   UNL     1      47.565  22.970  32.564  1.00  0.00     0.332 A 
ATOM     27  O   UNL     1      51.084  24.426  31.445  1.00  0.00    -0.267 OA
ATOM     28  N   UNL     1      48.597  23.787  31.845  1.00  0.00    -0.258 N 
ATOM     29  O   UNL     1      46.111  23.149  32.244  1.00  0.00    -0.247 OA
ATOM     30  H   UNL     1      52.702  22.598  33.432  1.00  0.00     0.168 HD
BRANCH  24  31
ATOM     31  C   UNL     1      46.956  21.156  34.322  1.00  0.00     0.129 C 
BRANCH  31  32
ATOM     32  C   UNL     1      46.400  19.919  33.681  1.00  0.00     0.019 C 
ATOM     33  C   UNL     1      47.154  19.244  32.574  1.00  0.00     0.006 C 
ENDBRANCH  31  32
ENDBRANCH  24  31
BRANCH  28  34
ATOM     34  C   UNL     1      48.175  24.783  30.806  1.00  0.00     0.131 C 
BRANCH  34  35
ATOM     35  C   UNL     1      47.893  24.332  29.403  1.00  0.00     0.019 C 
ATOM     36  C   UNL     1      46.477  24.120  28.954  1.00  0.00     0.006 C 
ENDBRANCH  34  35
ENDBRANCH  28  34
ENDBRANCH  18  19
ENDBRANCH  12  13
ENDBRANCH   1  12
TORSDOF 11
ENDMDL
MODEL 9
REMARK minimizedAffinity -7.74717188
REMARK minimizedRMSD -1
REMARK SMILES CCCn1c(=O)c2[nH]c(-c3ccc(OCC(=O)NCC[NH3+])cc3)nc2n(CCC)c1=O
REMARK SMILES IDX 15 1 16 2 18 3 17 4 19 6 20 7 21 8 14 12 13 13 12 14 22 15
REMARK SMILES IDX 11 16 23 17 10 18 9 19 24 20 8 21 25 22 7 23 26 24 5 25
REMARK SMILES IDX 30 26 6 27 4 28 31 29 27 31 28 32 29 33 3 34 2 35 1 36
REMARK H PARENT 18 5 21 9 21 10 21 11 8 30
REMARK INDEX MAP 7 1 5 2 4 3 6 4 39 5 3 6 1 7 2 8 34 9 35 10 36 11 8 12 9 13
REMARK INDEX MAP 10 14 11 15 12 16 13 17 14 18 15 19 16 20 17 21 18 22 19 23
REMARK INDEX MAP 20 24 21 25 22 26 24 27 25 28 26 29 46 30 23 31 27 32 29 33
REMARK INDEX MAP 28 34 30 35 31 36
ROOT
ATOM      1  C   UNL     1      57.394  18.715  37.499  1.00  0.00     0.329 C 
ENDROOT
BRANCH   1   2
ATOM      2  C   UNL     1      57.976  20.046  37.129  1.00  0.00     0.258 C 
ATOM      3  N   UNL     1      57.942  20.511  35.703  1.00  0.00    -0.347 N 
ATOM      4  O   UNL     1      58.593  20.914  38.186  1.00  0.00    -0.271 OA
ATOM      5  H   UNL     1      57.531  19.932  34.999  1.00  0.00     0.163 HD
BRANCH   3   6
ATOM      6  C   UNL     1      58.525  21.843  35.335  1.00  0.00     0.177 C 
BRANCH   6   7
ATOM      7  C   UNL     1      57.748  23.099  35.596  1.00  0.00     0.280 C 
BRANCH   7   8
ATOM      8  N   UNL     1      56.274  23.139  35.324  1.00  0.00    -0.356 N 
ATOM      9  H   UNL     1      55.975  22.251  34.975  1.00  0.00     0.344 HD
ATOM     10  H   UNL     1      55.681  23.931  35.468  1.00  0.00     0.344 HD
ATOM     11  H   UNL     1      55.304  23.035  35.102  1.00  0.00     0.344 HD
ENDBRANCH   7   8
ENDBRANCH   6   7
ENDBRANCH   3   6
ENDBRANCH   1   2
BRANCH   1  12
ATOM     12  O   UNL     1      55.967  18.619  37.951  1.00  0.00    -0.484 OA
BRANCH  12  13
ATOM     13  C   UNL     1      54.880  19.272  37.149  1.00  0.00     0.120 A 
ATOM     14  C   UNL     1      54.079  18.463  36.172  1.00  0.00     0.047 A 
ATOM     15  C   UNL     1      54.594  20.734  37.325  1.00  0.00     0.047 A 
ATOM     16  C   UNL     1      52.993  19.116  35.371  1.00  0.00     0.016 A 
ATOM     17  C   UNL     1      53.508  21.387  36.524  1.00  0.00     0.016 A 
ATOM     18  C   UNL     1      52.707  20.578  35.546  1.00  0.00     0.018 A 
BRANCH  18  19
ATOM     19  C   UNL     1      51.620  21.232  34.745  1.00  0.00     0.140 A 
ATOM     20  N   UNL     1      50.152  20.941  34.849  1.00  0.00    -0.210 NA
ATOM     21  N   UNL     1      51.810  22.291  33.699  1.00  0.00    -0.332 N 
ATOM     22  C   UNL     1      49.435  21.820  33.868  1.00  0.00     0.168 A 
ATOM     23  C   UNL     1      50.459  22.654  33.158  1.00  0.00     0.150 A 
ATOM     24  N   UNL     1      47.981  21.969  33.530  1.00  0.00    -0.276 N 
ATOM     25  C   UNL     1      50.031  23.637  32.108  1.00  0.00     0.282 A 
ATOM     26  C   UNL     1      47.552  22.952  32.481  1.00  0.00     0.332 A 
ATOM     27  O   UNL     1      51.056  24.471  31.398  1.00  0.00    -0.267 OA
ATOM     28  N   UNL     1      48.576  23.786  31.770  1.00  0.00    -0.258 N 
ATOM     29  O   UNL     1      46.098  23.101  32.142  1.00  0.00    -0.247 OA
ATOM     30  H   UNL     1      52.684  22.684  33.414  1.00  0.00     0.168 HD
BRANCH  24  31
ATOM     31  C   UNL     1      46.957  21.135  34.240  1.00  0.00     0.129 C 
BRANCH  31  32
ATOM     32  C   UNL     1      46.352  19.946  33.555  1.00  0.00     0.019 C 
ATOM     33  C   UNL     1      47.136  19.200  32.516  1.00  0.00     0.006 C 
ENDBRANCH  31  32
ENDBRANCH  24  31
BRANCH  28  34
ATOM     34  C   UNL     1      48.148  24.769  30.721  1.00  0.00     0.131 C 
BRANCH  34  35
ATOM     35  C   UNL     1      47.854  24.299  29.327  1.00  0.00     0.019 C 
ATOM     36  C   UNL     1      46.479  24.470  28.753  1.00  0.00     0.006 C 
ENDBRANCH  34  35
ENDBRANCH  28  34
ENDBRANCH  18  19
ENDBRANCH  12  13
ENDBRANCH   1  12
TORSDOF 11
ENDMDL
MODEL 10
REMARK minimizedAffinity -7.6920414
REMARK minimizedRMSD -1
REMARK SMILES CCCn1c(=O)c2[nH]c(-c3ccc(OCC(=O)NCC[NH3+])cc3)nc2n(CCC)c1=O
REMARK SMILES IDX 15 1 16 2 18 3 17 4 19 6 20 7 21 8 14 12 13 13 12 14 22 15
REMARK SMILES IDX 11 16 23 17 10 18 9 19 24 20 8 21 25 22 7 23 26 24 5 25
REMARK SMILES IDX 30 26 6 27 4 28 31 29 27 31 28 32 29 33 3 34 2 35 1 36
REMARK H PARENT 18 5 21 9 21 10 21 11 8 30
REMARK INDEX MAP 7 1 5 2 4 3 6 4 39 5 3 6 1 7 2 8 34 9 35 10 36 11 8 12 9 13
REMARK INDEX MAP 10 14 11 15 12 16 13 17 14 18 15 19 16 20 17 21 18 22 19 23
REMARK INDEX MAP 20 24 21 25 22 26 24 27 25 28 26 29 46 30 23 31 27 32 29 33
REMARK INDEX MAP 28 34 30 35 31 36
ROOT
ATOM      1  C   UNL     1      59.201  25.746  32.443  1.00  0.00     0.329 C 
ENDROOT
BRANCH   1   2
ATOM      2  C   UNL     1      59.083  25.597  30.956  1.00  0.00     0.258 C 
ATOM      3  N   UNL     1      59.001  24.231  30.342  1.00  0.00    -0.347 N 
ATOM      4  O   UNL     1      59.047  26.816  30.081  1.00  0.00    -0.271 OA
ATOM      5  H   UNL     1      59.025  23.419  30.925  1.00  0.00     0.163 HD
BRANCH   3   6
ATOM      6  C   UNL     1      58.882  24.083  28.854  1.00  0.00     0.177 C 
BRANCH   6   7
ATOM      7  C   UNL     1      58.579  22.741  28.256  1.00  0.00     0.280 C 
BRANCH   7   8
ATOM      8  N   UNL     1      58.664  21.506  29.103  1.00  0.00    -0.356 N 
ATOM      9  H   UNL     1      58.935  21.758  30.033  1.00  0.00     0.344 HD
ATOM     10  H   UNL     1      58.479  20.576  28.788  1.00  0.00     0.344 HD
ATOM     11  H   UNL     1      58.757  20.768  29.770  1.00  0.00     0.344 HD
ENDBRANCH   7   8
ENDBRANCH   6   7
ENDBRANCH   3   6
ENDBRANCH   1   2
BRANCH   1  12
ATOM     12  O   UNL     1      58.082  26.365  33.227  1.00  0.00    -0.484 OA
BRANCH  12  13
ATOM     13  C   UNL     1      56.713  25.752  33.192  1.00  0.00     0.120 A 
ATOM     14  C   UNL     1      56.364  24.643  34.140  1.00  0.00     0.047 A 
ATOM     15  C   UNL     1      55.694  26.248  32.210  1.00  0.00     0.047 A 
ATOM     16  C   UNL     1      54.995  24.030  34.106  1.00  0.00     0.016 A 
ATOM     17  C   UNL     1      54.326  25.635  32.175  1.00  0.00     0.016 A 
ATOM     18  C   UNL     1      53.976  24.526  33.123  1.00  0.00     0.018 A 
BRANCH  18  19
ATOM     19  C   UNL     1      52.607  23.913  33.087  1.00  0.00     0.140 A 
ATOM     20  N   UNL     1      51.406  24.481  32.392  1.00  0.00    -0.210 NA
ATOM     21  N   UNL     1      52.199  22.626  33.741  1.00  0.00    -0.332 N 
ATOM     22  C   UNL     1      50.255  23.545  32.615  1.00  0.00     0.168 A 
ATOM     23  C   UNL     1      50.745  22.399  33.449  1.00  0.00     0.150 A 
ATOM     24  N   UNL     1      48.824  23.589  32.167  1.00  0.00    -0.276 N 
ATOM     25  C   UNL     1      49.805  21.295  33.835  1.00  0.00     0.282 A 
ATOM     26  C   UNL     1      47.883  22.486  32.553  1.00  0.00     0.332 A 
ATOM     27  O   UNL     1      50.296  20.149  34.669  1.00  0.00    -0.267 OA
ATOM     28  N   UNL     1      48.374  21.339  33.387  1.00  0.00    -0.258 N 
ATOM     29  O   UNL     1      46.453  22.529  32.105  1.00  0.00    -0.247 OA
ATOM     30  H   UNL     1      52.792  22.026  34.277  1.00  0.00     0.168 HD
BRANCH  24  31
ATOM     31  C   UNL     1      48.334  24.735  31.333  1.00  0.00     0.129 C 
BRANCH  31  32
ATOM     32  C   UNL     1      48.367  24.641  29.836  1.00  0.00     0.019 C 
ATOM     33  C   UNL     1      47.242  23.973  29.102  1.00  0.00     0.006 C 
ENDBRANCH  31  32
ENDBRANCH  24  31
BRANCH  28  34
ATOM     34  C   UNL     1      47.434  20.236  33.773  1.00  0.00     0.131 C 
BRANCH  34  35
ATOM     35  C   UNL     1      47.149  19.121  32.810  1.00  0.00     0.019 C 
ATOM     36  C   UNL     1      45.825  18.417  32.850  1.00  0.00     0.006 C 
ENDBRANCH  34  35
ENDBRANCH  28  34
ENDBRANCH  18  19
ENDBRANCH  12  13
ENDBRANCH   1  12
TORSDOF 11
ENDMDL
MODEL 11
REMARK minimizedAffinity -7.58869505
REMARK minimizedRMSD -1
REMARK SMILES CCCn1c(=O)c2[nH]c(-c3ccc(OCC(=O)NCC[NH3+])cc3)nc2n(CCC)c1=O
REMARK SMILES IDX 15 1 16 2 18 3 17 4 19 6 20 7 21 8 14 12 13 13 12 14 22 15
REMARK SMILES IDX 11 16 23 17 10 18 9 19 24 20 8 21 25 22 7 23 26 24 5 25
REMARK SMILES IDX 30 26 6 27 4 28 31 29 27 31 28 32 29 33 3 34 2 35 1 36
REMARK H PARENT 18 5 21 9 21 10 21 11 8 30
REMARK INDEX MAP 7 1 5 2 4 3 6 4 39 5 3 6 1 7 2 8 34 9 35 10 36 11 8 12 9 13
REMARK INDEX MAP 10 14 11 15 12 16 13 17 14 18 15 19 16 20 17 21 18 22 19 23
REMARK INDEX MAP 20 24 21 25 22 26 24 27 25 28 26 29 46 30 23 31 27 32 29 33
REMARK INDEX MAP 28 34 30 35 31 36
ROOT
ATOM      1  C   UNL     1      46.470  22.594  30.396  1.00  0.00     0.329 C 
ENDROOT
BRANCH   1   2
ATOM      2  C   UNL     1      46.340  21.122  30.646  1.00  0.00     0.258 C 
ATOM      3  N   UNL     1      46.717  20.551  31.982  1.00  0.00    -0.347 N 
ATOM      4  O   UNL     1      45.832  20.218  29.561  1.00  0.00    -0.271 OA
ATOM      5  H   UNL     1      47.056  21.153  32.705  1.00  0.00     0.163 HD
BRANCH   3   6
ATOM      6  C   UNL     1      46.587  19.077  32.231  1.00  0.00     0.177 C 
BRANCH   6   7
ATOM      7  C   UNL     1      45.535  18.567  33.170  1.00  0.00     0.280 C 
BRANCH   7   8
ATOM      8  N   UNL     1      44.970  17.190  32.985  1.00  0.00    -0.356 N 
ATOM      9  H   UNL     1      45.403  16.755  32.196  1.00  0.00     0.344 HD
ATOM     10  H   UNL     1      44.268  16.771  33.562  1.00  0.00     0.344 HD
ATOM     11  H   UNL     1      44.678  16.262  32.754  1.00  0.00     0.344 HD
ENDBRANCH   7   8
ENDBRANCH   6   7
ENDBRANCH   3   6
ENDBRANCH   1   2
BRANCH   1  12
ATOM     12  O   UNL     1      46.881  23.512  31.510  1.00  0.00    -0.484 OA
BRANCH  12  13
ATOM     13  C   UNL     1      48.334  23.684  31.842  1.00  0.00     0.120 A 
ATOM     14  C   UNL     1      49.150  24.717  31.123  1.00  0.00     0.047 A 
ATOM     15  C   UNL     1      48.969  22.824  32.894  1.00  0.00     0.047 A 
ATOM     16  C   UNL     1      50.603  24.889  31.456  1.00  0.00     0.016 A 
ATOM     17  C   UNL     1      50.421  22.996  33.227  1.00  0.00     0.016 A 
ATOM     18  C   UNL     1      51.238  24.029  32.508  1.00  0.00     0.018 A 
BRANCH  18  19
ATOM     19  C   UNL     1      52.690  24.200  32.841  1.00  0.00     0.140 A 
ATOM     20  N   UNL     1      53.680  25.026  32.073  1.00  0.00    -0.210 NA
ATOM     21  N   UNL     1      53.410  23.577  34.001  1.00  0.00    -0.332 N 
ATOM     22  C   UNL     1      55.009  24.913  32.758  1.00  0.00     0.168 A 
ATOM     23  C   UNL     1      54.843  24.017  33.949  1.00  0.00     0.150 A 
ATOM     24  N   UNL     1      56.351  25.510  32.450  1.00  0.00    -0.276 N 
ATOM     25  C   UNL     1      56.017  23.718  34.833  1.00  0.00     0.282 A 
ATOM     26  C   UNL     1      57.525  25.211  33.334  1.00  0.00     0.332 A 
ATOM     27  O   UNL     1      55.849  22.822  36.025  1.00  0.00    -0.267 OA
ATOM     28  N   UNL     1      57.359  24.315  34.525  1.00  0.00    -0.258 N 
ATOM     29  O   UNL     1      58.867  25.808  33.027  1.00  0.00    -0.247 OA
ATOM     30  H   UNL     1      53.005  22.974  34.687  1.00  0.00     0.168 HD
BRANCH  24  31
ATOM     31  C   UNL     1      56.517  26.406  31.258  1.00  0.00     0.129 C 
BRANCH  31  32
ATOM     32  C   UNL     1      57.076  25.856  29.980  1.00  0.00     0.019 C 
ATOM     33  C   UNL     1      58.475  26.201  29.562  1.00  0.00     0.006 C 
ENDBRANCH  31  32
ENDBRANCH  24  31
BRANCH  28  34
ATOM     34  C   UNL     1      58.532  24.016  35.410  1.00  0.00     0.131 C 
BRANCH  34  35
ATOM     35  C   UNL     1      58.687  24.730  36.720  1.00  0.00     0.019 C 
ATOM     36  C   UNL     1      58.844  26.221  36.747  1.00  0.00     0.006 C 
ENDBRANCH  34  35
ENDBRANCH  28  34
ENDBRANCH  18  19
ENDBRANCH  12  13
ENDBRANCH   1  12
TORSDOF 11
ENDMDL
MODEL 12
REMARK minimizedAffinity -7.50416946
REMARK minimizedRMSD -1
REMARK SMILES CCCn1c(=O)c2[nH]c(-c3ccc(OCC(=O)NCC[NH3+])cc3)nc2n(CCC)c1=O
REMARK SMILES IDX 15 1 16 2 18 3 17 4 19 6 20 7 21 8 14 12 13 13 12 14 22 15
REMARK SMILES IDX 11 16 23 17 10 18 9 19 24 20 8 21 25 22 7 23 26 24 5 25
REMARK SMILES IDX 30 26 6 27 4 28 31 29 27 31 28 32 29 33 3 34 2 35 1 36
REMARK H PARENT 18 5 21 9 21 10 21 11 8 30
REMARK INDEX MAP 7 1 5 2 4 3 6 4 39 5 3 6 1 7 2 8 34 9 35 10 36 11 8 12 9 13
REMARK INDEX MAP 10 14 11 15 12 16 13 17 14 18 15 19 16 20 17 21 18 22 19 23
REMARK INDEX MAP 20 24 21 25 22 26 24 27 25 28 26 29 46 30 23 31 27 32 29 33
REMARK INDEX MAP 28 34 30 35 31 36
ROOT
ATOM      1  C   UNL     1      57.334  27.381  33.813  1.00  0.00     0.329 C 
ENDROOT
BRANCH   1   2
ATOM      2  C   UNL     1      58.055  27.714  35.085  1.00  0.00     0.258 C 
ATOM      3  N   UNL     1      57.352  28.478  36.168  1.00  0.00    -0.347 N 
ATOM      4  O   UNL     1      59.480  27.284  35.275  1.00  0.00    -0.271 OA
ATOM      5  H   UNL     1      56.402  28.764  36.042  1.00  0.00     0.163 HD
BRANCH   3   6
ATOM      6  C   UNL     1      58.073  28.811  37.441  1.00  0.00     0.177 C 
BRANCH   6   7
ATOM      7  C   UNL     1      58.972  30.010  37.501  1.00  0.00     0.280 C 
BRANCH   7   8
ATOM      8  N   UNL     1      58.923  31.039  36.411  1.00  0.00    -0.356 N 
ATOM      9  H   UNL     1      58.241  30.771  35.730  1.00  0.00     0.344 HD
ATOM     10  H   UNL     1      59.484  31.865  36.371  1.00  0.00     0.344 HD
ATOM     11  H   UNL     1      58.792  31.646  35.627  1.00  0.00     0.344 HD
ENDBRANCH   7   8
ENDBRANCH   6   7
ENDBRANCH   3   6
ENDBRANCH   1   2
BRANCH   1  12
ATOM     12  O   UNL     1      57.110  25.948  33.430  1.00  0.00    -0.484 OA
BRANCH  12  13
ATOM     13  C   UNL     1      55.714  25.424  33.268  1.00  0.00     0.120 A 
ATOM     14  C   UNL     1      54.903  25.812  32.067  1.00  0.00     0.047 A 
ATOM     15  C   UNL     1      55.130  24.513  34.306  1.00  0.00     0.047 A 
ATOM     16  C   UNL     1      53.506  25.288  31.904  1.00  0.00     0.016 A 
ATOM     17  C   UNL     1      53.734  23.989  34.143  1.00  0.00     0.016 A 
ATOM     18  C   UNL     1      52.922  24.377  32.943  1.00  0.00     0.018 A 
BRANCH  18  19
ATOM     19  C   UNL     1      51.526  23.852  32.781  1.00  0.00     0.140 A 
ATOM     20  N   UNL     1      50.940  22.670  33.496  1.00  0.00    -0.210 NA
ATOM     21  N   UNL     1      50.470  24.417  31.877  1.00  0.00    -0.332 N 
ATOM     22  C   UNL     1      49.523  22.505  33.033  1.00  0.00     0.168 A 
ATOM     23  C   UNL     1      49.233  23.584  32.034  1.00  0.00     0.150 A 
ATOM     24  N   UNL     1      48.460  21.510  33.394  1.00  0.00    -0.276 N 
ATOM     25  C   UNL     1      47.878  23.670  31.394  1.00  0.00     0.282 A 
ATOM     26  C   UNL     1      47.105  21.595  32.755  1.00  0.00     0.332 A 
ATOM     27  O   UNL     1      47.588  24.749  30.394  1.00  0.00    -0.267 OA
ATOM     28  N   UNL     1      46.814  22.675  31.754  1.00  0.00    -0.258 N 
ATOM     29  O   UNL     1      46.041  20.601  33.115  1.00  0.00    -0.247 OA
ATOM     30  H   UNL     1      50.574  25.209  31.277  1.00  0.00     0.168 HD
BRANCH  24  31
ATOM     31  C   UNL     1      48.750  20.431  34.394  1.00  0.00     0.129 C 
BRANCH  31  32
ATOM     32  C   UNL     1      48.904  20.776  35.846  1.00  0.00     0.019 C 
ATOM     33  C   UNL     1      47.689  20.969  36.704  1.00  0.00     0.006 C 
ENDBRANCH  31  32
ENDBRANCH  24  31
BRANCH  28  34
ATOM     34  C   UNL     1      45.461  22.761  31.115  1.00  0.00     0.131 C 
BRANCH  34  35
ATOM     35  C   UNL     1      45.323  22.623  29.627  1.00  0.00     0.019 C 
ATOM     36  C   UNL     1      44.584  23.667  28.843  1.00  0.00     0.006 C 
ENDBRANCH  34  35
ENDBRANCH  28  34
ENDBRANCH  18  19
ENDBRANCH  12  13
ENDBRANCH   1  12
TORSDOF 11
ENDMDL
MODEL 13
REMARK minimizedAffinity -7.26914024
REMARK minimizedRMSD -1
REMARK SMILES CCCn1c(=O)c2[nH]c(-c3ccc(OCC(=O)NCC[NH3+])cc3)nc2n(CCC)c1=O
REMARK SMILES IDX 15 1 16 2 18 3 17 4 19 6 20 7 21 8 14 12 13 13 12 14 22 15
REMARK SMILES IDX 11 16 23 17 10 18 9 19 24 20 8 21 25 22 7 23 26 24 5 25
REMARK SMILES IDX 30 26 6 27 4 28 31 29 27 31 28 32 29 33 3 34 2 35 1 36
REMARK H PARENT 18 5 21 9 21 10 21 11 8 30
REMARK INDEX MAP 7 1 5 2 4 3 6 4 39 5 3 6 1 7 2 8 34 9 35 10 36 11 8 12 9 13
REMARK INDEX MAP 10 14 11 15 12 16 13 17 14 18 15 19 16 20 17 21 18 22 19 23
REMARK INDEX MAP 20 24 21 25 22 26 24 27 25 28 26 29 46 30 23 31 27 32 29 33
REMARK INDEX MAP 28 34 30 35 31 36
ROOT
ATOM      1  C   UNL     1      46.351  20.489  31.345  1.00  0.00     0.329 C 
ENDROOT
BRANCH   1   2
ATOM      2  C   UNL     1      45.655  19.717  32.425  1.00  0.00     0.258 C 
ATOM      3  N   UNL     1      45.686  18.217  32.414  1.00  0.00    -0.347 N 
ATOM      4  O   UNL     1      44.926  20.444  33.517  1.00  0.00    -0.271 OA
ATOM      5  H   UNL     1      46.172  17.732  31.687  1.00  0.00     0.163 HD
BRANCH   3   6
ATOM      6  C   UNL     1      44.989  17.445  33.495  1.00  0.00     0.177 C 
BRANCH   6   7
ATOM      7  C   UNL     1      43.500  17.271  33.451  1.00  0.00     0.280 C 
BRANCH   7   8
ATOM      8  N   UNL     1      42.895  16.210  32.580  1.00  0.00    -0.356 N 
ATOM      9  H   UNL     1      43.621  15.716  32.103  1.00  0.00     0.344 HD
ATOM     10  H   UNL     1      41.916  16.026  32.490  1.00  0.00     0.344 HD
ATOM     11  H   UNL     1      42.620  15.472  31.964  1.00  0.00     0.344 HD
ENDBRANCH   7   8
ENDBRANCH   6   7
ENDBRANCH   3   6
ENDBRANCH   1   2
BRANCH   1  12
ATOM     12  O   UNL     1      47.161  21.703  31.693  1.00  0.00    -0.484 OA
BRANCH  12  13
ATOM     13  C   UNL     1      48.277  21.600  32.691  1.00  0.00     0.120 A 
ATOM     14  C   UNL     1      48.368  20.405  33.593  1.00  0.00     0.047 A 
ATOM     15  C   UNL     1      49.301  22.692  32.785  1.00  0.00     0.047 A 
ATOM     16  C   UNL     1      49.483  20.302  34.591  1.00  0.00     0.016 A 
ATOM     17  C   UNL     1      50.417  22.589  33.782  1.00  0.00     0.016 A 
ATOM     18  C   UNL     1      50.508  21.394  34.685  1.00  0.00     0.018 A 
BRANCH  18  19
ATOM     19  C   UNL     1      51.624  21.292  35.682  1.00  0.00     0.140 A 
ATOM     20  N   UNL     1      51.732  22.061  36.966  1.00  0.00    -0.210 NA
ATOM     21  N   UNL     1      52.827  20.402  35.572  1.00  0.00    -0.332 N 
ATOM     22  C   UNL     1      53.002  21.647  37.648  1.00  0.00     0.168 A 
ATOM     23  C   UNL     1      53.679  20.623  36.787  1.00  0.00     0.150 A 
ATOM     24  N   UNL     1      53.630  22.072  38.943  1.00  0.00    -0.276 N 
ATOM     25  C   UNL     1      54.984  20.022  37.220  1.00  0.00     0.282 A 
ATOM     26  C   UNL     1      54.935  21.472  39.376  1.00  0.00     0.332 A 
ATOM     27  O   UNL     1      55.660  18.997  36.358  1.00  0.00    -0.267 OA
ATOM     28  N   UNL     1      55.611  20.446  38.515  1.00  0.00    -0.258 N 
ATOM     29  O   UNL     1      55.563  21.896  40.670  1.00  0.00    -0.247 OA
ATOM     30  H   UNL     1      53.026  19.774  34.821  1.00  0.00     0.168 HD
BRANCH  24  31
ATOM     31  C   UNL     1      52.953  23.097  39.804  1.00  0.00     0.129 C 
BRANCH  31  32
ATOM     32  C   UNL     1      51.711  22.736  40.562  1.00  0.00     0.019 C 
ATOM     33  C   UNL     1      50.379  23.260  40.114  1.00  0.00     0.006 C 
ENDBRANCH  31  32
ENDBRANCH  24  31
BRANCH  28  34
ATOM     34  C   UNL     1      56.916  19.845  38.947  1.00  0.00     0.131 C 
BRANCH  34  35
ATOM     35  C   UNL     1      56.929  18.573  39.742  1.00  0.00     0.019 C 
ATOM     36  C   UNL     1      57.328  17.284  39.086  1.00  0.00     0.006 C 
ENDBRANCH  34  35
ENDBRANCH  28  34
ENDBRANCH  18  19
ENDBRANCH  12  13
ENDBRANCH   1  12
TORSDOF 11
ENDMDL
MODEL 14
REMARK minimizedAffinity -7.20221853
REMARK minimizedRMSD -1
REMARK SMILES CCCn1c(=O)c2[nH]c(-c3ccc(OCC(=O)NCC[NH3+])cc3)nc2n(CCC)c1=O
REMARK SMILES IDX 15 1 16 2 18 3 17 4 19 6 20 7 21 8 14 12 13 13 12 14 22 15
REMARK SMILES IDX 11 16 23 17 10 18 9 19 24 20 8 21 25 22 7 23 26 24 5 25
REMARK SMILES IDX 30 26 6 27 4 28 31 29 27 31 28 32 29 33 3 34 2 35 1 36
REMARK H PARENT 18 5 21 9 21 10 21 11 8 30
REMARK INDEX MAP 7 1 5 2 4 3 6 4 39 5 3 6 1 7 2 8 34 9 35 10 36 11 8 12 9 13
REMARK INDEX MAP 10 14 11 15 12 16 13 17 14 18 15 19 16 20 17 21 18 22 19 23
REMARK INDEX MAP 20 24 21 25 22 26 24 27 25 28 26 29 46 30 23 31 27 32 29 33
REMARK INDEX MAP 28 34 30 35 31 36
ROOT
ATOM      1  C   UNL     1      47.716  24.840  29.784  1.00  0.00     0.329 C 
ENDROOT
BRANCH   1   2
ATOM      2  C   UNL     1      46.976  23.537  29.750  1.00  0.00     0.258 C 
ATOM      3  N   UNL     1      47.166  22.537  30.852  1.00  0.00    -0.347 N 
ATOM      4  O   UNL     1      46.044  23.233  28.614  1.00  0.00    -0.271 OA
ATOM      5  H   UNL     1      47.787  22.740  31.609  1.00  0.00     0.163 HD
BRANCH   3   6
ATOM      6  C   UNL     1      46.424  21.233  30.818  1.00  0.00     0.177 C 
BRANCH   6   7
ATOM      7  C   UNL     1      46.612  20.235  31.922  1.00  0.00     0.280 C 
BRANCH   7   8
ATOM      8  N   UNL     1      46.754  18.778  31.598  1.00  0.00    -0.356 N 
ATOM      9  H   UNL     1      46.701  18.649  30.608  1.00  0.00     0.344 HD
ATOM     10  H   UNL     1      46.882  18.047  32.269  1.00  0.00     0.344 HD
ATOM     11  H   UNL     1      46.836  17.844  31.251  1.00  0.00     0.344 HD
ENDBRANCH   7   8
ENDBRANCH   6   7
ENDBRANCH   3   6
ENDBRANCH   1   2
BRANCH   1  12
ATOM     12  O   UNL     1      49.217  24.851  29.783  1.00  0.00    -0.484 OA
BRANCH  12  13
ATOM     13  C   UNL     1      49.971  24.480  31.025  1.00  0.00     0.120 A 
ATOM     14  C   UNL     1      49.280  24.504  32.357  1.00  0.00     0.047 A 
ATOM     15  C   UNL     1      51.415  24.085  30.936  1.00  0.00     0.047 A 
ATOM     16  C   UNL     1      50.034  24.132  33.599  1.00  0.00     0.016 A 
ATOM     17  C   UNL     1      52.169  23.714  32.178  1.00  0.00     0.016 A 
ATOM     18  C   UNL     1      51.478  23.738  33.510  1.00  0.00     0.018 A 
BRANCH  18  19
ATOM     19  C   UNL     1      52.232  23.366  34.752  1.00  0.00     0.140 A 
ATOM     20  N   UNL     1      51.718  23.464  36.158  1.00  0.00    -0.210 NA
ATOM     21  N   UNL     1      53.634  22.832  34.807  1.00  0.00    -0.332 N 
ATOM     22  C   UNL     1      52.801  22.990  37.081  1.00  0.00     0.168 A 
ATOM     23  C   UNL     1      53.984  22.600  36.247  1.00  0.00     0.150 A 
ATOM     24  N   UNL     1      52.862  22.864  38.575  1.00  0.00    -0.276 N 
ATOM     25  C   UNL     1      55.230  22.083  36.905  1.00  0.00     0.282 A 
ATOM     26  C   UNL     1      54.107  22.347  39.234  1.00  0.00     0.332 A 
ATOM     27  O   UNL     1      56.413  21.693  36.070  1.00  0.00    -0.267 OA
ATOM     28  N   UNL     1      55.291  21.957  38.399  1.00  0.00    -0.258 N 
ATOM     29  O   UNL     1      54.168  22.220  40.727  1.00  0.00    -0.247 OA
ATOM     30  H   UNL     1      54.228  22.661  34.022  1.00  0.00     0.168 HD
BRANCH  24  31
ATOM     31  C   UNL     1      51.678  23.254  39.410  1.00  0.00     0.129 C 
BRANCH  31  32
ATOM     32  C   UNL     1      51.496  24.682  39.831  1.00  0.00     0.019 C 
ATOM     33  C   UNL     1      51.739  25.081  41.256  1.00  0.00     0.006 C 
ENDBRANCH  31  32
ENDBRANCH  24  31
BRANCH  28  34
ATOM     34  C   UNL     1      56.535  21.440  39.057  1.00  0.00     0.131 C 
BRANCH  34  35
ATOM     35  C   UNL     1      56.599  20.019  39.533  1.00  0.00     0.019 C 
ATOM     36  C   UNL     1      56.407  18.893  38.560  1.00  0.00     0.006 C 
ENDBRANCH  34  35
ENDBRANCH  28  34
ENDBRANCH  18  19
ENDBRANCH  12  13
ENDBRANCH   1  12
TORSDOF 11
ENDMDL
MODEL 15
REMARK minimizedAffinity -7.19331884
REMARK minimizedRMSD -1
REMARK SMILES CCCn1c(=O)c2[nH]c(-c3ccc(OCC(=O)NCC[NH3+])cc3)nc2n(CCC)c1=O
REMARK SMILES IDX 15 1 16 2 18 3 17 4 19 6 20 7 21 8 14 12 13 13 12 14 22 15
REMARK SMILES IDX 11 16 23 17 10 18 9 19 24 20 8 21 25 22 7 23 26 24 5 25
REMARK SMILES IDX 30 26 6 27 4 28 31 29 27 31 28 32 29 33 3 34 2 35 1 36
REMARK H PARENT 18 5 21 9 21 10 21 11 8 30
REMARK INDEX MAP 7 1 5 2 4 3 6 4 39 5 3 6 1 7 2 8 34 9 35 10 36 11 8 12 9 13
REMARK INDEX MAP 10 14 11 15 12 16 13 17 14 18 15 19 16 20 17 21 18 22 19 23
REMARK INDEX MAP 20 24 21 25 22 26 24 27 25 28 26 29 46 30 23 31 27 32 29 33
REMARK INDEX MAP 28 34 30 35 31 36
ROOT
ATOM      1  C   UNL     1      46.227  22.648  30.041  1.00  0.00     0.329 C 
ENDROOT
BRANCH   1   2
ATOM      2  C   UNL     1      46.140  21.175  30.304  1.00  0.00     0.258 C 
ATOM      3  N   UNL     1      46.461  20.636  31.667  1.00  0.00    -0.347 N 
ATOM      4  O   UNL     1      45.733  20.239  29.205  1.00  0.00    -0.271 OA
ATOM      5  H   UNL     1      46.733  21.259  32.400  1.00  0.00     0.163 HD
BRANCH   3   6
ATOM      6  C   UNL     1      46.374  19.161  31.930  1.00  0.00     0.177 C 
BRANCH   6   7
ATOM      7  C   UNL     1      45.607  18.655  33.116  1.00  0.00     0.280 C 
BRANCH   7   8
ATOM      8  N   UNL     1      45.261  17.199  33.218  1.00  0.00    -0.356 N 
ATOM      9  H   UNL     1      45.615  16.715  32.418  1.00  0.00     0.344 HD
ATOM     10  H   UNL     1      44.754  16.778  33.971  1.00  0.00     0.344 HD
ATOM     11  H   UNL     1      45.095  16.215  33.167  1.00  0.00     0.344 HD
ENDBRANCH   7   8
ENDBRANCH   6   7
ENDBRANCH   3   6
ENDBRANCH   1   2
BRANCH   1  12
ATOM     12  O   UNL     1      46.519  23.596  31.166  1.00  0.00    -0.484 OA
BRANCH  12  13
ATOM     13  C   UNL     1      47.914  23.714  31.706  1.00  0.00     0.120 A 
ATOM     14  C   UNL     1      48.351  22.845  32.849  1.00  0.00     0.047 A 
ATOM     15  C   UNL     1      48.870  24.699  31.104  1.00  0.00     0.047 A 
ATOM     16  C   UNL     1      49.746  22.962  33.389  1.00  0.00     0.016 A 
ATOM     17  C   UNL     1      50.265  24.816  31.644  1.00  0.00     0.016 A 
ATOM     18  C   UNL     1      50.702  23.947  32.786  1.00  0.00     0.018 A 
BRANCH  18  19
ATOM     19  C   UNL     1      52.097  24.065  33.325  1.00  0.00     0.140 A 
ATOM     20  N   UNL     1      52.717  23.181  34.367  1.00  0.00    -0.210 NA
ATOM     21  N   UNL     1      53.118  25.087  32.919  1.00  0.00    -0.332 N 
ATOM     22  C   UNL     1      54.119  23.657  34.603  1.00  0.00     0.168 A 
ATOM     23  C   UNL     1      54.367  24.834  33.709  1.00  0.00     0.150 A 
ATOM     24  N   UNL     1      55.204  23.169  35.519  1.00  0.00    -0.276 N 
ATOM     25  C   UNL     1      55.699  25.525  33.729  1.00  0.00     0.282 A 
ATOM     26  C   UNL     1      56.535  23.859  35.539  1.00  0.00     0.332 A 
ATOM     27  O   UNL     1      55.946  26.703  32.833  1.00  0.00    -0.267 OA
ATOM     28  N   UNL     1      56.783  25.037  34.644  1.00  0.00    -0.258 N 
ATOM     29  O   UNL     1      57.619  23.372  36.454  1.00  0.00    -0.247 OA
ATOM     30  H   UNL     1      52.987  25.810  32.240  1.00  0.00     0.168 HD
BRANCH  24  31
ATOM     31  C   UNL     1      54.956  21.991  36.414  1.00  0.00     0.129 C 
BRANCH  31  32
ATOM     32  C   UNL     1      53.963  22.096  37.533  1.00  0.00     0.019 C 
ATOM     33  C   UNL     1      54.427  22.009  38.957  1.00  0.00     0.006 C 
ENDBRANCH  31  32
ENDBRANCH  24  31
BRANCH  28  34
ATOM     34  C   UNL     1      58.114  25.728  34.663  1.00  0.00     0.131 C 
BRANCH  34  35
ATOM     35  C   UNL     1      58.430  26.719  35.744  1.00  0.00     0.019 C 
ATOM     36  C   UNL     1      57.925  28.128  35.640  1.00  0.00     0.006 C 
ENDBRANCH  34  35
ENDBRANCH  28  34
ENDBRANCH  18  19
ENDBRANCH  12  13
ENDBRANCH   1  12
TORSDOF 11
ENDMDL
MODEL 16
REMARK minimizedAffinity -7.17637491
REMARK minimizedRMSD -1
REMARK SMILES CCCn1c(=O)c2[nH]c(-c3ccc(OCC(=O)NCC[NH3+])cc3)nc2n(CCC)c1=O
REMARK SMILES IDX 15 1 16 2 18 3 17 4 19 6 20 7 21 8 14 12 13 13 12 14 22 15
REMARK SMILES IDX 11 16 23 17 10 18 9 19 24 20 8 21 25 22 7 23 26 24 5 25
REMARK SMILES IDX 30 26 6 27 4 28 31 29 27 31 28 32 29 33 3 34 2 35 1 36
REMARK H PARENT 18 5 21 9 21 10 21 11 8 30
REMARK INDEX MAP 7 1 5 2 4 3 6 4 39 5 3 6 1 7 2 8 34 9 35 10 36 11 8 12 9 13
REMARK INDEX MAP 10 14 11 15 12 16 13 17 14 18 15 19 16 20 17 21 18 22 19 23
REMARK INDEX MAP 20 24 21 25 22 26 24 27 25 28 26 29 46 30 23 31 27 32 29 33
REMARK INDEX MAP 28 34 30 35 31 36
ROOT
ATOM      1  C   UNL     1      46.945  20.935  32.660  1.00  0.00     0.329 C 
ENDROOT
BRANCH   1   2
ATOM      2  C   UNL     1      46.565  19.485  32.659  1.00  0.00     0.258 C 
ATOM      3  N   UNL     1      45.240  19.055  33.215  1.00  0.00    -0.347 N 
ATOM      4  O   UNL     1      47.511  18.462  32.101  1.00  0.00    -0.271 OA
ATOM      5  H   UNL     1      44.609  19.736  33.587  1.00  0.00     0.163 HD
BRANCH   3   6
ATOM      6  C   UNL     1      44.861  17.603  33.214  1.00  0.00     0.177 C 
BRANCH   6   7
ATOM      7  C   UNL     1      43.461  17.194  33.562  1.00  0.00     0.280 C 
BRANCH   7   8
ATOM      8  N   UNL     1      42.730  16.210  32.697  1.00  0.00    -0.356 N 
ATOM      9  H   UNL     1      43.319  15.932  31.938  1.00  0.00     0.344 HD
ATOM     10  H   UNL     1      41.798  15.883  32.855  1.00  0.00     0.344 HD
ATOM     11  H   UNL     1      42.357  15.552  32.043  1.00  0.00     0.344 HD
ENDBRANCH   7   8
ENDBRANCH   6   7
ENDBRANCH   3   6
ENDBRANCH   1   2
BRANCH   1  12
ATOM     12  O   UNL     1      48.387  21.334  32.553  1.00  0.00    -0.484 OA
BRANCH  12  13
ATOM     13  C   UNL     1      49.205  21.529  33.796  1.00  0.00     0.120 A 
ATOM     14  C   UNL     1      48.698  21.025  35.114  1.00  0.00     0.047 A 
ATOM     15  C   UNL     1      50.531  22.226  33.718  1.00  0.00     0.047 A 
ATOM     16  C   UNL     1      49.516  21.219  36.357  1.00  0.00     0.016 A 
ATOM     17  C   UNL     1      51.349  22.421  34.961  1.00  0.00     0.016 A 
ATOM     18  C   UNL     1      50.841  21.917  36.279  1.00  0.00     0.018 A 
BRANCH  18  19
ATOM     19  C   UNL     1      51.660  22.112  37.521  1.00  0.00     0.140 A 
ATOM     20  N   UNL     1      51.385  23.105  38.612  1.00  0.00    -0.210 NA
ATOM     21  N   UNL     1      52.898  21.348  37.891  1.00  0.00    -0.332 N 
ATOM     22  C   UNL     1      52.453  22.955  39.655  1.00  0.00     0.168 A 
ATOM     23  C   UNL     1      53.387  21.870  39.210  1.00  0.00     0.150 A 
ATOM     24  N   UNL     1      52.694  23.667  40.953  1.00  0.00    -0.276 N 
ATOM     25  C   UNL     1      54.564  21.496  40.063  1.00  0.00     0.282 A 
ATOM     26  C   UNL     1      53.870  23.294  41.806  1.00  0.00     0.332 A 
ATOM     27  O   UNL     1      55.498  20.411  39.617  1.00  0.00    -0.267 OA
ATOM     28  N   UNL     1      54.805  22.208  41.361  1.00  0.00    -0.258 N 
ATOM     29  O   UNL     1      54.112  24.005  43.104  1.00  0.00    -0.247 OA
ATOM     30  H   UNL     1      53.322  20.620  37.353  1.00  0.00     0.168 HD
BRANCH  24  31
ATOM     31  C   UNL     1      51.759  24.753  41.398  1.00  0.00     0.129 C 
BRANCH  31  32
ATOM     32  C   UNL     1      50.476  24.400  42.090  1.00  0.00     0.019 C 
ATOM     33  C   UNL     1      50.430  24.312  43.587  1.00  0.00     0.006 C 
ENDBRANCH  31  32
ENDBRANCH  24  31
BRANCH  28  34
ATOM     34  C   UNL     1      55.981  21.834  42.213  1.00  0.00     0.131 C 
BRANCH  34  35
ATOM     35  C   UNL     1      55.791  20.945  43.406  1.00  0.00     0.019 C 
ATOM     36  C   UNL     1      55.362  19.520  43.219  1.00  0.00     0.006 C 
ENDBRANCH  34  35
ENDBRANCH  28  34
ENDBRANCH  18  19
ENDBRANCH  12  13
ENDBRANCH   1  12
TORSDOF 11
ENDMDL
MODEL 17
REMARK minimizedAffinity -7.16982412
REMARK minimizedRMSD -1
REMARK SMILES CCCn1c(=O)c2[nH]c(-c3ccc(OCC(=O)NCC[NH3+])cc3)nc2n(CCC)c1=O
REMARK SMILES IDX 15 1 16 2 18 3 17 4 19 6 20 7 21 8 14 12 13 13 12 14 22 15
REMARK SMILES IDX 11 16 23 17 10 18 9 19 24 20 8 21 25 22 7 23 26 24 5 25
REMARK SMILES IDX 30 26 6 27 4 28 31 29 27 31 28 32 29 33 3 34 2 35 1 36
REMARK H PARENT 18 5 21 9 21 10 21 11 8 30
REMARK INDEX MAP 7 1 5 2 4 3 6 4 39 5 3 6 1 7 2 8 34 9 35 10 36 11 8 12 9 13
REMARK INDEX MAP 10 14 11 15 12 16 13 17 14 18 15 19 16 20 17 21 18 22 19 23
REMARK INDEX MAP 20 24 21 25 22 26 24 27 25 28 26 29 46 30 23 31 27 32 29 33
REMARK INDEX MAP 28 34 30 35 31 36
ROOT
ATOM      1  C   UNL     1      46.967  23.730  29.240  1.00  0.00     0.329 C 
ENDROOT
BRANCH   1   2
ATOM      2  C   UNL     1      46.214  22.665  29.977  1.00  0.00     0.258 C 
ATOM      3  N   UNL     1      46.957  21.642  30.785  1.00  0.00    -0.347 N 
ATOM      4  O   UNL     1      44.716  22.620  29.908  1.00  0.00    -0.271 OA
ATOM      5  H   UNL     1      47.956  21.672  30.831  1.00  0.00     0.163 HD
BRANCH   3   6
ATOM      6  C   UNL     1      46.203  20.576  31.523  1.00  0.00     0.177 C 
BRANCH   6   7
ATOM      7  C   UNL     1      46.949  19.497  32.250  1.00  0.00     0.280 C 
BRANCH   7   8
ATOM      8  N   UNL     1      46.361  18.121  32.357  1.00  0.00    -0.356 N 
ATOM      9  H   UNL     1      45.476  18.099  31.892  1.00  0.00     0.344 HD
ATOM     10  H   UNL     1      46.789  17.345  32.822  1.00  0.00     0.344 HD
ATOM     11  H   UNL     1      45.864  17.254  32.357  1.00  0.00     0.344 HD
ENDBRANCH   7   8
ENDBRANCH   6   7
ENDBRANCH   3   6
ENDBRANCH   1   2
BRANCH   1  12
ATOM     12  O   UNL     1      47.585  24.872  29.993  1.00  0.00    -0.484 OA
BRANCH  12  13
ATOM     13  C   UNL     1      48.810  24.644  30.828  1.00  0.00     0.120 A 
ATOM     14  C   UNL     1      48.681  24.449  32.310  1.00  0.00     0.047 A 
ATOM     15  C   UNL     1      50.162  24.610  30.181  1.00  0.00     0.047 A 
ATOM     16  C   UNL     1      49.907  24.221  33.145  1.00  0.00     0.016 A 
ATOM     17  C   UNL     1      51.388  24.382  31.016  1.00  0.00     0.016 A 
ATOM     18  C   UNL     1      51.259  24.188  32.498  1.00  0.00     0.018 A 
BRANCH  18  19
ATOM     19  C   UNL     1      52.485  23.960  33.333  1.00  0.00     0.140 A 
ATOM     20  N   UNL     1      53.797  24.672  33.184  1.00  0.00    -0.210 NA
ATOM     21  N   UNL     1      52.615  22.980  34.462  1.00  0.00    -0.332 N 
ATOM     22  C   UNL     1      54.737  24.133  34.221  1.00  0.00     0.168 A 
ATOM     23  C   UNL     1      54.006  23.088  35.011  1.00  0.00     0.150 A 
ATOM     24  N   UNL     1      56.164  24.459  34.549  1.00  0.00    -0.276 N 
ATOM     25  C   UNL     1      54.702  22.368  36.128  1.00  0.00     0.282 A 
ATOM     26  C   UNL     1      56.861  23.739  35.666  1.00  0.00     0.332 A 
ATOM     27  O   UNL     1      53.971  21.322  36.917  1.00  0.00    -0.267 OA
ATOM     28  N   UNL     1      56.130  22.694  36.455  1.00  0.00    -0.258 N 
ATOM     29  O   UNL     1      58.287  24.065  35.994  1.00  0.00    -0.247 OA
ATOM     30  H   UNL     1      51.899  22.365  34.790  1.00  0.00     0.168 HD
BRANCH  24  31
ATOM     31  C   UNL     1      56.895  25.504  33.759  1.00  0.00     0.129 C 
BRANCH  31  32
ATOM     32  C   UNL     1      56.740  26.954  34.112  1.00  0.00     0.019 C 
ATOM     33  C   UNL     1      57.546  27.545  35.230  1.00  0.00     0.006 C 
ENDBRANCH  31  32
ENDBRANCH  24  31
BRANCH  28  34
ATOM     34  C   UNL     1      56.825  21.974  37.572  1.00  0.00     0.131 C 
BRANCH  34  35
ATOM     35  C   UNL     1      57.677  20.774  37.277  1.00  0.00     0.019 C 
ATOM     36  C   UNL     1      57.033  19.449  36.995  1.00  0.00     0.006 C 
ENDBRANCH  34  35
ENDBRANCH  28  34
ENDBRANCH  18  19
ENDBRANCH  12  13
ENDBRANCH   1  12
TORSDOF 11
ENDMDL
MODEL 18
REMARK minimizedAffinity -7.15650415
REMARK minimizedRMSD -1
REMARK SMILES CCCn1c(=O)c2[nH]c(-c3ccc(OCC(=O)NCC[NH3+])cc3)nc2n(CCC)c1=O
REMARK SMILES IDX 15 1 16 2 18 3 17 4 19 6 20 7 21 8 14 12 13 13 12 14 22 15
REMARK SMILES IDX 11 16 23 17 10 18 9 19 24 20 8 21 25 22 7 23 26 24 5 25
REMARK SMILES IDX 30 26 6 27 4 28 31 29 27 31 28 32 29 33 3 34 2 35 1 36
REMARK H PARENT 18 5 21 9 21 10 21 11 8 30
REMARK INDEX MAP 7 1 5 2 4 3 6 4 39 5 3 6 1 7 2 8 34 9 35 10 36 11 8 12 9 13
REMARK INDEX MAP 10 14 11 15 12 16 13 17 14 18 15 19 16 20 17 21 18 22 19 23
REMARK INDEX MAP 20 24 21 25 22 26 24 27 25 28 26 29 46 30 23 31 27 32 29 33
REMARK INDEX MAP 28 34 30 35 31 36
ROOT
ATOM      1  C   UNL     1      46.456  20.695  31.892  1.00  0.00     0.329 C 
ENDROOT
BRANCH   1   2
ATOM      2  C   UNL     1      46.103  21.332  30.581  1.00  0.00     0.258 C 
ATOM      3  N   UNL     1      46.036  22.826  30.466  1.00  0.00    -0.347 N 
ATOM      4  O   UNL     1      45.817  20.475  29.383  1.00  0.00    -0.271 OA
ATOM      5  H   UNL     1      46.227  23.398  31.265  1.00  0.00     0.163 HD
BRANCH   3   6
ATOM      6  C   UNL     1      45.683  23.463  29.155  1.00  0.00     0.177 C 
BRANCH   6   7
ATOM      7  C   UNL     1      46.467  24.642  28.659  1.00  0.00     0.280 C 
BRANCH   7   8
ATOM      8  N   UNL     1      47.740  25.038  29.346  1.00  0.00    -0.356 N 
ATOM      9  H   UNL     1      47.916  24.414  30.108  1.00  0.00     0.344 HD
ATOM     10  H   UNL     1      48.323  25.807  29.083  1.00  0.00     0.344 HD
ATOM     11  H   UNL     1      48.565  25.196  29.889  1.00  0.00     0.344 HD
ENDBRANCH   7   8
ENDBRANCH   6   7
ENDBRANCH   3   6
ENDBRANCH   1   2
BRANCH   1  12
ATOM     12  O   UNL     1      46.907  21.545  33.043  1.00  0.00    -0.484 OA
BRANCH  12  13
ATOM     13  C   UNL     1      48.305  22.088  33.072  1.00  0.00     0.120 A 
ATOM     14  C   UNL     1      48.604  23.424  32.457  1.00  0.00     0.047 A 
ATOM     15  C   UNL     1      49.404  21.295  33.715  1.00  0.00     0.047 A 
ATOM     16  C   UNL     1      50.002  23.967  32.486  1.00  0.00     0.016 A 
ATOM     17  C   UNL     1      50.802  21.838  33.744  1.00  0.00     0.016 A 
ATOM     18  C   UNL     1      51.101  23.174  33.129  1.00  0.00     0.018 A 
BRANCH  18  19
ATOM     19  C   UNL     1      52.499  23.716  33.159  1.00  0.00     0.140 A 
ATOM     20  N   UNL     1      53.079  24.710  32.196  1.00  0.00    -0.210 NA
ATOM     21  N   UNL     1      53.563  23.360  34.155  1.00  0.00    -0.332 N 
ATOM     22  C   UNL     1      54.501  24.968  32.598  1.00  0.00     0.168 A 
ATOM     23  C   UNL     1      54.800  24.134  33.808  1.00  0.00     0.150 A 
ATOM     24  N   UNL     1      55.563  25.855  32.017  1.00  0.00    -0.276 N 
ATOM     25  C   UNL     1      56.161  24.186  34.438  1.00  0.00     0.282 A 
ATOM     26  C   UNL     1      56.923  25.908  32.647  1.00  0.00     0.332 A 
ATOM     27  O   UNL     1      56.459  23.352  35.649  1.00  0.00    -0.267 OA
ATOM     28  N   UNL     1      57.222  25.074  33.858  1.00  0.00    -0.258 N 
ATOM     29  O   UNL     1      57.985  26.794  32.068  1.00  0.00    -0.247 OA
ATOM     30  H   UNL     1      53.464  22.719  34.916  1.00  0.00     0.168 HD
BRANCH  24  31
ATOM     31  C   UNL     1      55.264  26.689  30.807  1.00  0.00     0.129 C 
BRANCH  31  32
ATOM     32  C   UNL     1      54.898  26.027  29.512  1.00  0.00     0.019 C 
ATOM     33  C   UNL     1      55.870  25.101  28.842  1.00  0.00     0.006 C 
ENDBRANCH  31  32
ENDBRANCH  24  31
BRANCH  28  34
ATOM     34  C   UNL     1      58.582  25.126  34.488  1.00  0.00     0.131 C 
BRANCH  34  35
ATOM     35  C   UNL     1      58.971  26.299  35.338  1.00  0.00     0.019 C 
ATOM     36  C   UNL     1      58.772  26.249  36.823  1.00  0.00     0.006 C 
ENDBRANCH  34  35
ENDBRANCH  28  34
ENDBRANCH  18  19
ENDBRANCH  12  13
ENDBRANCH   1  12
TORSDOF 11
ENDMDL
MODEL 19
REMARK minimizedAffinity -7.12499475
REMARK minimizedRMSD -1
REMARK SMILES CCCn1c(=O)c2[nH]c(-c3ccc(OCC(=O)NCC[NH3+])cc3)nc2n(CCC)c1=O
REMARK SMILES IDX 15 1 16 2 18 3 17 4 19 6 20 7 21 8 14 12 13 13 12 14 22 15
REMARK SMILES IDX 11 16 23 17 10 18 9 19 24 20 8 21 25 22 7 23 26 24 5 25
REMARK SMILES IDX 30 26 6 27 4 28 31 29 27 31 28 32 29 33 3 34 2 35 1 36
REMARK H PARENT 18 5 21 9 21 10 21 11 8 30
REMARK INDEX MAP 7 1 5 2 4 3 6 4 39 5 3 6 1 7 2 8 34 9 35 10 36 11 8 12 9 13
REMARK INDEX MAP 10 14 11 15 12 16 13 17 14 18 15 19 16 20 17 21 18 22 19 23
REMARK INDEX MAP 20 24 21 25 22 26 24 27 25 28 26 29 46 30 23 31 27 32 29 33
REMARK INDEX MAP 28 34 30 35 31 36
ROOT
ATOM      1  C   UNL     1      46.169  22.613  31.551  1.00  0.00     0.329 C 
ENDROOT
BRANCH   1   2
ATOM      2  C   UNL     1      46.249  21.339  32.337  1.00  0.00     0.258 C 
ATOM      3  N   UNL     1      46.523  20.040  31.637  1.00  0.00    -0.347 N 
ATOM      4  O   UNL     1      46.055  21.362  33.825  1.00  0.00    -0.271 OA
ATOM      5  H   UNL     1      46.652  20.025  30.645  1.00  0.00     0.163 HD
BRANCH   3   6
ATOM      6  C   UNL     1      46.603  18.766  32.424  1.00  0.00     0.177 C 
BRANCH   6   7
ATOM      7  C   UNL     1      45.383  18.233  33.114  1.00  0.00     0.280 C 
BRANCH   7   8
ATOM      8  N   UNL     1      44.569  17.151  32.468  1.00  0.00    -0.356 N 
ATOM      9  H   UNL     1      44.979  16.905  31.590  1.00  0.00     0.344 HD
ATOM     10  H   UNL     1      43.744  16.739  32.856  1.00  0.00     0.344 HD
ATOM     11  H   UNL     1      44.118  16.436  31.935  1.00  0.00     0.344 HD
ENDBRANCH   7   8
ENDBRANCH   6   7
ENDBRANCH   3   6
ENDBRANCH   1   2
BRANCH   1  12
ATOM     12  O   UNL     1      46.827  23.858  32.069  1.00  0.00    -0.484 OA
BRANCH  12  13
ATOM     13  C   UNL     1      48.261  24.143  31.733  1.00  0.00     0.120 A 
ATOM     14  C   UNL     1      49.296  24.155  32.819  1.00  0.00     0.047 A 
ATOM     15  C   UNL     1      48.658  24.417  30.313  1.00  0.00     0.047 A 
ATOM     16  C   UNL     1      50.731  24.441  32.483  1.00  0.00     0.016 A 
ATOM     17  C   UNL     1      50.092  24.702  29.978  1.00  0.00     0.016 A 
ATOM     18  C   UNL     1      51.128  24.714  31.063  1.00  0.00     0.018 A 
BRANCH  18  19
ATOM     19  C   UNL     1      52.562  25.000  30.727  1.00  0.00     0.140 A 
ATOM     20  N   UNL     1      53.445  26.002  31.412  1.00  0.00    -0.210 NA
ATOM     21  N   UNL     1      53.365  24.336  29.648  1.00  0.00    -0.332 N 
ATOM     22  C   UNL     1      54.793  25.955  30.756  1.00  0.00     0.168 A 
ATOM     23  C   UNL     1      54.744  24.926  29.666  1.00  0.00     0.150 A 
ATOM     24  N   UNL     1      56.059  26.718  31.010  1.00  0.00    -0.276 N 
ATOM     25  C   UNL     1      55.961  24.659  28.830  1.00  0.00     0.282 A 
ATOM     26  C   UNL     1      57.277  26.452  30.175  1.00  0.00     0.332 A 
ATOM     27  O   UNL     1      55.910  23.629  27.741  1.00  0.00    -0.267 OA
ATOM     28  N   UNL     1      57.227  25.422  29.085  1.00  0.00    -0.258 N 
ATOM     29  O   UNL     1      58.543  27.214  30.429  1.00  0.00    -0.247 OA
ATOM     30  H   UNL     1      53.038  23.624  29.027  1.00  0.00     0.168 HD
BRANCH  24  31
ATOM     31  C   UNL     1      56.109  27.748  32.100  1.00  0.00     0.129 C 
BRANCH  31  32
ATOM     32  C   UNL     1      56.181  27.318  33.535  1.00  0.00     0.019 C 
ATOM     33  C   UNL     1      57.414  27.598  34.341  1.00  0.00     0.006 C 
ENDBRANCH  31  32
ENDBRANCH  24  31
BRANCH  28  34
ATOM     34  C   UNL     1      58.443  25.155  28.249  1.00  0.00     0.131 C 
BRANCH  34  35
ATOM     35  C   UNL     1      58.759  26.037  27.078  1.00  0.00     0.019 C 
ATOM     36  C   UNL     1      58.195  25.718  25.725  1.00  0.00     0.006 C 
ENDBRANCH  34  35
ENDBRANCH  28  34
ENDBRANCH  18  19
ENDBRANCH  12  13
ENDBRANCH   1  12
TORSDOF 11
ENDMDL
