MODEL 1
REMARK VINA RESULT:    -7.219      0.000      0.000
REMARK INTER + INTRA:         -12.439
REMARK INTER:                 -11.650
REMARK INTRA:                  -0.789
REMARK UNBOUND:                -0.789
REMARK SMILES CCCn1c(=O)c2[nH]c(-c3ccc(OCC(=O)NCC[NH3+])cc3)nc2n(CCC)c1=O
REMARK SMILES IDX 15 1 16 2 18 3 17 4 19 6 20 7 21 8 14 12 13 13 12 14 22 15
REMARK SMILES IDX 11 16 23 17 10 18 9 19 24 20 8 21 25 22 7 23 26 24 5 25
REMARK SMILES IDX 30 26 6 27 4 28 31 29 27 31 28 32 29 33 3 34 2 35 1 36
REMARK H PARENT 18 5 21 9 21 10 21 11 8 30
REMARK INDEX MAP 7 1 5 2 4 3 6 4 39 5 3 6 1 7 2 8 34 9 35 10 36 11 8 12 9 13
REMARK INDEX MAP 10 14 11 15 12 16 13 17 14 18 15 19 16 20 17 21 18 22 19 23
REMARK INDEX MAP 20 24 21 25 22 26 24 27 25 28 26 29 46 30 23 31 27 32 29 33
REMARK INDEX MAP 28 34 30 35 31 36
ROOT
ATOM      1  C   UNL     1      45.818  21.851  29.402  1.00  0.00     0.329 C 
ENDROOT
BRANCH   1   2
ATOM      2  C   UNL     1      44.647  22.705  29.785  1.00  0.00     0.258 C 
ATOM      3  N   UNL     1      44.007  22.542  31.132  1.00  0.00    -0.347 N 
ATOM      4  O   UNL     1      44.114  23.724  28.821  1.00  0.00    -0.271 OA
ATOM      5  H   UNL     1      44.362  21.863  31.775  1.00  0.00     0.163 HD
BRANCH   3   6
ATOM      6  C   UNL     1      42.835  23.396  31.514  1.00  0.00     0.177 C 
BRANCH   6   7
ATOM      7  C   UNL     1      42.186  23.222  32.856  1.00  0.00     0.280 C 
BRANCH   7   8
ATOM      8  N   UNL     1      42.550  24.136  33.988  1.00  0.00    -0.356 N 
ATOM      9  H   UNL     1      41.981  24.958  33.950  1.00  0.00     0.344 HD
ATOM     10  H   UNL     1      43.253  23.953  34.675  1.00  0.00     0.344 HD
ATOM     11  H   UNL     1      42.696  24.830  34.694  1.00  0.00     0.344 HD
ENDBRANCH   7   8
ENDBRANCH   6   7
ENDBRANCH   3   6
ENDBRANCH   1   2
BRANCH   1  12
ATOM     12  O   UNL     1      46.215  20.689  30.265  1.00  0.00    -0.484 OA
BRANCH  12  13
ATOM     13  C   UNL     1      47.048  20.916  31.492  1.00  0.00     0.120 A 
ATOM     14  C   UNL     1      47.616  22.275  31.772  1.00  0.00     0.047 A 
ATOM     15  C   UNL     1      47.312  19.782  32.437  1.00  0.00     0.047 A 
ATOM     16  C   UNL     1      48.449  22.502  32.999  1.00  0.00     0.016 A 
ATOM     17  C   UNL     1      48.145  20.008  33.664  1.00  0.00     0.016 A 
ATOM     18  C   UNL     1      48.714  21.368  33.944  1.00  0.00     0.018 A 
BRANCH  18  19
ATOM     19  C   UNL     1      49.547  21.593  35.171  1.00  0.00     0.140 A 
ATOM     20  N   UNL     1      51.034  21.424  35.270  1.00  0.00    -0.210 NA
ATOM     21  N   UNL     1      49.040  22.028  36.515  1.00  0.00    -0.332 N 
ATOM     22  C   UNL     1      51.446  21.753  36.674  1.00  0.00     0.168 A 
ATOM     23  C   UNL     1      50.214  22.126  37.443  1.00  0.00     0.150 A 
ATOM     24  N   UNL     1      52.785  21.761  37.352  1.00  0.00    -0.276 N 
ATOM     25  C   UNL     1      50.319  22.508  38.891  1.00  0.00     0.282 A 
ATOM     26  C   UNL     1      52.891  22.143  38.799  1.00  0.00     0.332 A 
ATOM     27  O   UNL     1      49.086  22.881  39.659  1.00  0.00    -0.267 OA
ATOM     28  N   UNL     1      51.658  22.516  39.568  1.00  0.00    -0.258 N 
ATOM     29  O   UNL     1      54.228  22.151  39.477  1.00  0.00    -0.247 OA
ATOM     30  H   UNL     1      48.087  22.218  36.750  1.00  0.00     0.168 HD
BRANCH  24  31
ATOM     31  C   UNL     1      54.017  21.388  36.582  1.00  0.00     0.129 C 
BRANCH  31  32
ATOM     32  C   UNL     1      54.570  19.998  36.682  1.00  0.00     0.019 C 
ATOM     33  C   UNL     1      53.910  18.873  35.940  1.00  0.00     0.006 C 
ENDBRANCH  31  32
ENDBRANCH  24  31
BRANCH  28  34
ATOM     34  C   UNL     1      51.763  22.897  41.015  1.00  0.00     0.131 C 
BRANCH  34  35
ATOM     35  C   UNL     1      52.020  24.325  41.398  1.00  0.00     0.019 C 
ATOM     36  C   UNL     1      53.282  24.691  42.121  1.00  0.00     0.006 C 
ENDBRANCH  34  35
ENDBRANCH  28  34
ENDBRANCH  18  19
ENDBRANCH  12  13
ENDBRANCH   1  12
TORSDOF 11
ENDMDL
MODEL 2
REMARK VINA RESULT:    -7.204      3.751     11.150
REMARK INTER + INTRA:         -12.415
REMARK INTER:                 -11.426
REMARK INTRA:                  -0.989
REMARK UNBOUND:                -0.789
REMARK SMILES CCCn1c(=O)c2[nH]c(-c3ccc(OCC(=O)NCC[NH3+])cc3)nc2n(CCC)c1=O
REMARK SMILES IDX 15 1 16 2 18 3 17 4 19 6 20 7 21 8 14 12 13 13 12 14 22 15
REMARK SMILES IDX 11 16 23 17 10 18 9 19 24 20 8 21 25 22 7 23 26 24 5 25
REMARK SMILES IDX 30 26 6 27 4 28 31 29 27 31 28 32 29 33 3 34 2 35 1 36
REMARK H PARENT 18 5 21 9 21 10 21 11 8 30
REMARK INDEX MAP 7 1 5 2 4 3 6 4 39 5 3 6 1 7 2 8 34 9 35 10 36 11 8 12 9 13
REMARK INDEX MAP 10 14 11 15 12 16 13 17 14 18 15 19 16 20 17 21 18 22 19 23
REMARK INDEX MAP 20 24 21 25 22 26 24 27 25 28 26 29 46 30 23 31 27 32 29 33
REMARK INDEX MAP 28 34 30 35 31 36
ROOT
ATOM      1  C   UNL     1      52.503  27.401  44.433  1.00  0.00     0.329 C 
ENDROOT
BRANCH   1   2
ATOM      2  C   UNL     1      53.966  27.723  44.370  1.00  0.00     0.258 C 
ATOM      3  N   UNL     1      54.929  26.730  43.790  1.00  0.00    -0.347 N 
ATOM      4  O   UNL     1      54.467  29.039  44.888  1.00  0.00    -0.271 OA
ATOM      5  H   UNL     1      54.595  25.853  43.444  1.00  0.00     0.163 HD
BRANCH   3   6
ATOM      6  C   UNL     1      56.393  27.053  43.727  1.00  0.00     0.177 C 
BRANCH   6   7
ATOM      7  C   UNL     1      56.931  27.875  42.594  1.00  0.00     0.280 C 
BRANCH   7   8
ATOM      8  N   UNL     1      56.415  29.265  42.365  1.00  0.00    -0.356 N 
ATOM      9  H   UNL     1      56.954  29.913  42.902  1.00  0.00     0.344 HD
ATOM     10  H   UNL     1      55.650  29.505  41.767  1.00  0.00     0.344 HD
ATOM     11  H   UNL     1      56.169  30.231  42.299  1.00  0.00     0.344 HD
ENDBRANCH   7   8
ENDBRANCH   6   7
ENDBRANCH   3   6
ENDBRANCH   1   2
BRANCH   1  12
ATOM     12  O   UNL     1      52.051  25.971  44.496  1.00  0.00    -0.484 OA
BRANCH  12  13
ATOM     13  C   UNL     1      51.550  25.287  43.259  1.00  0.00     0.120 A 
ATOM     14  C   UNL     1      50.381  24.351  43.340  1.00  0.00     0.047 A 
ATOM     15  C   UNL     1      52.218  25.540  41.940  1.00  0.00     0.047 A 
ATOM     16  C   UNL     1      49.880  23.667  42.103  1.00  0.00     0.016 A 
ATOM     17  C   UNL     1      51.717  24.856  40.702  1.00  0.00     0.016 A 
ATOM     18  C   UNL     1      50.548  23.920  40.784  1.00  0.00     0.018 A 
BRANCH  18  19
ATOM     19  C   UNL     1      50.048  23.236  39.546  1.00  0.00     0.140 A 
ATOM     20  N   UNL     1      50.865  22.901  38.333  1.00  0.00    -0.210 NA
ATOM     21  N   UNL     1      48.643  22.767  39.303  1.00  0.00    -0.332 N 
ATOM     22  C   UNL     1      49.965  22.226  37.341  1.00  0.00     0.168 A 
ATOM     23  C   UNL     1      48.593  22.143  37.940  1.00  0.00     0.150 A 
ATOM     24  N   UNL     1      50.219  21.675  35.969  1.00  0.00    -0.276 N 
ATOM     25  C   UNL     1      47.474  21.509  37.167  1.00  0.00     0.282 A 
ATOM     26  C   UNL     1      49.100  21.042  35.195  1.00  0.00     0.332 A 
ATOM     27  O   UNL     1      46.101  21.427  37.767  1.00  0.00    -0.267 OA
ATOM     28  N   UNL     1      47.728  20.959  35.795  1.00  0.00    -0.258 N 
ATOM     29  O   UNL     1      49.354  20.492  33.824  1.00  0.00    -0.247 OA
ATOM     30  H   UNL     1      47.877  22.855  39.938  1.00  0.00     0.168 HD
BRANCH  24  31
ATOM     31  C   UNL     1      51.592  21.759  35.369  1.00  0.00     0.129 C 
BRANCH  31  32
ATOM     32  C   UNL     1      52.030  23.011  34.670  1.00  0.00     0.019 C 
ATOM     33  C   UNL     1      51.027  23.850  33.935  1.00  0.00     0.006 C 
ENDBRANCH  31  32
ENDBRANCH  24  31
BRANCH  28  34
ATOM     34  C   UNL     1      46.609  20.326  35.023  1.00  0.00     0.131 C 
BRANCH  34  35
ATOM     35  C   UNL     1      45.711  21.173  34.170  1.00  0.00     0.019 C 
ATOM     36  C   UNL     1      44.383  20.641  33.721  1.00  0.00     0.006 C 
ENDBRANCH  34  35
ENDBRANCH  28  34
ENDBRANCH  18  19
ENDBRANCH  12  13
ENDBRANCH   1  12
TORSDOF 11
ENDMDL
MODEL 3
REMARK VINA RESULT:    -7.176      1.885      2.279
REMARK INTER + INTRA:         -12.370
REMARK INTER:                 -11.370
REMARK INTRA:                  -1.000
REMARK UNBOUND:                -0.789
REMARK SMILES CCCn1c(=O)c2[nH]c(-c3ccc(OCC(=O)NCC[NH3+])cc3)nc2n(CCC)c1=O
REMARK SMILES IDX 15 1 16 2 18 3 17 4 19 6 20 7 21 8 14 12 13 13 12 14 22 15
REMARK SMILES IDX 11 16 23 17 10 18 9 19 24 20 8 21 25 22 7 23 26 24 5 25
REMARK SMILES IDX 30 26 6 27 4 28 31 29 27 31 28 32 29 33 3 34 2 35 1 36
REMARK H PARENT 18 5 21 9 21 10 21 11 8 30
REMARK INDEX MAP 7 1 5 2 4 3 6 4 39 5 3 6 1 7 2 8 34 9 35 10 36 11 8 12 9 13
REMARK INDEX MAP 10 14 11 15 12 16 13 17 14 18 15 19 16 20 17 21 18 22 19 23
REMARK INDEX MAP 20 24 21 25 22 26 24 27 25 28 26 29 46 30 23 31 27 32 29 33
REMARK INDEX MAP 28 34 30 35 31 36
ROOT
ATOM      1  C   UNL     1      46.002  20.941  30.538  1.00  0.00     0.329 C 
ENDROOT
BRANCH   1   2
ATOM      2  C   UNL     1      45.618  22.343  30.171  1.00  0.00     0.258 C 
ATOM      3  N   UNL     1      46.422  23.100  29.155  1.00  0.00    -0.347 N 
ATOM      4  O   UNL     1      44.430  22.990  30.820  1.00  0.00    -0.271 OA
ATOM      5  H   UNL     1      47.214  22.668  28.723  1.00  0.00     0.163 HD
BRANCH   3   6
ATOM      6  C   UNL     1      46.038  24.503  28.788  1.00  0.00     0.177 C 
BRANCH   6   7
ATOM      7  C   UNL     1      44.896  24.745  27.847  1.00  0.00     0.280 C 
BRANCH   7   8
ATOM      8  N   UNL     1      43.500  24.373  28.251  1.00  0.00    -0.356 N 
ATOM      9  H   UNL     1      43.472  23.405  28.503  1.00  0.00     0.344 HD
ATOM     10  H   UNL     1      42.718  24.995  28.266  1.00  0.00     0.344 HD
ATOM     11  H   UNL     1      42.619  23.998  28.541  1.00  0.00     0.344 HD
ENDBRANCH   7   8
ENDBRANCH   6   7
ENDBRANCH   3   6
ENDBRANCH   1   2
BRANCH   1  12
ATOM     12  O   UNL     1      45.773  20.441  31.934  1.00  0.00    -0.484 OA
BRANCH  12  13
ATOM     13  C   UNL     1      46.797  20.697  33.000  1.00  0.00     0.120 A 
ATOM     14  C   UNL     1      46.506  20.326  34.425  1.00  0.00     0.047 A 
ATOM     15  C   UNL     1      48.111  21.325  32.642  1.00  0.00     0.047 A 
ATOM     16  C   UNL     1      47.530  20.583  35.491  1.00  0.00     0.016 A 
ATOM     17  C   UNL     1      49.135  21.581  33.708  1.00  0.00     0.016 A 
ATOM     18  C   UNL     1      48.844  21.210  35.132  1.00  0.00     0.018 A 
BRANCH  18  19
ATOM     19  C   UNL     1      49.868  21.466  36.197  1.00  0.00     0.140 A 
ATOM     20  N   UNL     1      51.343  21.217  36.080  1.00  0.00    -0.210 NA
ATOM     21  N   UNL     1      49.599  22.017  37.567  1.00  0.00    -0.332 N 
ATOM     22  C   UNL     1      51.985  21.614  37.376  1.00  0.00     0.168 A 
ATOM     23  C   UNL     1      50.908  22.108  38.295  1.00  0.00     0.150 A 
ATOM     24  N   UNL     1      53.412  21.589  37.839  1.00  0.00    -0.276 N 
ATOM     25  C   UNL     1      51.256  22.577  39.677  1.00  0.00     0.282 A 
ATOM     26  C   UNL     1      53.761  22.058  39.220  1.00  0.00     0.332 A 
ATOM     27  O   UNL     1      50.178  23.071  40.595  1.00  0.00    -0.267 OA
ATOM     28  N   UNL     1      52.683  22.552  40.139  1.00  0.00    -0.258 N 
ATOM     29  O   UNL     1      55.187  22.033  39.683  1.00  0.00    -0.247 OA
ATOM     30  H   UNL     1      48.705  22.277  37.929  1.00  0.00     0.168 HD
BRANCH  24  31
ATOM     31  C   UNL     1      54.490  21.094  36.920  1.00  0.00     0.129 C 
BRANCH  31  32
ATOM     32  C   UNL     1      54.804  19.629  36.854  1.00  0.00     0.019 C 
ATOM     33  C   UNL     1      54.037  18.738  35.923  1.00  0.00     0.006 C 
ENDBRANCH  31  32
ENDBRANCH  24  31
BRANCH  28  34
ATOM     34  C   UNL     1      53.031  23.021  41.520  1.00  0.00     0.131 C 
BRANCH  34  35
ATOM     35  C   UNL     1      53.323  24.471  41.770  1.00  0.00     0.019 C 
ATOM     36  C   UNL     1      52.196  25.455  41.883  1.00  0.00     0.006 C 
ENDBRANCH  34  35
ENDBRANCH  28  34
ENDBRANCH  18  19
ENDBRANCH  12  13
ENDBRANCH   1  12
TORSDOF 11
ENDMDL
MODEL 4
REMARK VINA RESULT:    -7.149      1.508      3.228
REMARK INTER + INTRA:         -12.325
REMARK INTER:                 -11.561
REMARK INTRA:                  -0.765
REMARK UNBOUND:                -0.789
REMARK SMILES CCCn1c(=O)c2[nH]c(-c3ccc(OCC(=O)NCC[NH3+])cc3)nc2n(CCC)c1=O
REMARK SMILES IDX 15 1 16 2 18 3 17 4 19 6 20 7 21 8 14 12 13 13 12 14 22 15
REMARK SMILES IDX 11 16 23 17 10 18 9 19 24 20 8 21 25 22 7 23 26 24 5 25
REMARK SMILES IDX 30 26 6 27 4 28 31 29 27 31 28 32 29 33 3 34 2 35 1 36
REMARK H PARENT 18 5 21 9 21 10 21 11 8 30
REMARK INDEX MAP 7 1 5 2 4 3 6 4 39 5 3 6 1 7 2 8 34 9 35 10 36 11 8 12 9 13
REMARK INDEX MAP 10 14 11 15 12 16 13 17 14 18 15 19 16 20 17 21 18 22 19 23
REMARK INDEX MAP 20 24 21 25 22 26 24 27 25 28 26 29 46 30 23 31 27 32 29 33
REMARK INDEX MAP 28 34 30 35 31 36
ROOT
ATOM      1  C   UNL     1      45.777  21.513  29.657  1.00  0.00     0.329 C 
ENDROOT
BRANCH   1   2
ATOM      2  C   UNL     1      44.705  22.520  29.946  1.00  0.00     0.258 C 
ATOM      3  N   UNL     1      43.911  22.429  31.216  1.00  0.00    -0.347 N 
ATOM      4  O   UNL     1      44.425  23.619  28.964  1.00  0.00    -0.271 OA
ATOM      5  H   UNL     1      44.098  21.696  31.870  1.00  0.00     0.163 HD
BRANCH   3   6
ATOM      6  C   UNL     1      42.839  23.438  31.504  1.00  0.00     0.177 C 
BRANCH   6   7
ATOM      7  C   UNL     1      42.107  23.400  32.812  1.00  0.00     0.280 C 
BRANCH   7   8
ATOM      8  N   UNL     1      42.606  24.208  33.974  1.00  0.00    -0.356 N 
ATOM      9  H   UNL     1      43.509  23.876  34.247  1.00  0.00     0.344 HD
ATOM     10  H   UNL     1      42.112  24.961  34.408  1.00  0.00     0.344 HD
ATOM     11  H   UNL     1      43.050  24.667  34.743  1.00  0.00     0.344 HD
ENDBRANCH   7   8
ENDBRANCH   6   7
ENDBRANCH   3   6
ENDBRANCH   1   2
BRANCH   1  12
ATOM     12  O   UNL     1      46.063  20.417  30.642  1.00  0.00    -0.484 OA
BRANCH  12  13
ATOM     13  C   UNL     1      47.069  20.635  31.734  1.00  0.00     0.120 A 
ATOM     14  C   UNL     1      47.692  21.986  31.922  1.00  0.00     0.047 A 
ATOM     15  C   UNL     1      47.451  19.500  32.637  1.00  0.00     0.047 A 
ATOM     16  C   UNL     1      48.697  22.203  33.014  1.00  0.00     0.016 A 
ATOM     17  C   UNL     1      48.457  19.717  33.728  1.00  0.00     0.016 A 
ATOM     18  C   UNL     1      49.080  21.069  33.917  1.00  0.00     0.018 A 
BRANCH  18  19
ATOM     19  C   UNL     1      50.085  21.285  35.009  1.00  0.00     0.140 A 
ATOM     20  N   UNL     1      49.911  22.175  36.203  1.00  0.00    -0.210 NA
ATOM     21  N   UNL     1      51.441  20.649  35.099  1.00  0.00    -0.332 N 
ATOM     22  C   UNL     1      51.159  22.090  37.031  1.00  0.00     0.168 A 
ATOM     23  C   UNL     1      52.104  21.147  36.349  1.00  0.00     0.150 A 
ATOM     24  N   UNL     1      51.557  22.749  38.319  1.00  0.00    -0.276 N 
ATOM     25  C   UNL     1      53.448  20.862  36.953  1.00  0.00     0.282 A 
ATOM     26  C   UNL     1      52.900  22.465  38.924  1.00  0.00     0.332 A 
ATOM     27  O   UNL     1      54.393  19.918  36.270  1.00  0.00    -0.267 OA
ATOM     28  N   UNL     1      53.845  21.522  38.241  1.00  0.00    -0.258 N 
ATOM     29  O   UNL     1      53.298  23.124  40.211  1.00  0.00    -0.247 OA
ATOM     30  H   UNL     1      51.833  20.006  34.441  1.00  0.00     0.168 HD
BRANCH  24  31
ATOM     31  C   UNL     1      50.611  23.693  39.001  1.00  0.00     0.129 C 
BRANCH  31  32
ATOM     32  C   UNL     1      49.620  23.170  39.998  1.00  0.00     0.019 C 
ATOM     33  C   UNL     1      49.787  23.480  41.456  1.00  0.00     0.006 C 
ENDBRANCH  31  32
ENDBRANCH  24  31
BRANCH  28  34
ATOM     34  C   UNL     1      55.188  21.237  38.845  1.00  0.00     0.131 C 
BRANCH  34  35
ATOM     35  C   UNL     1      56.397  21.993  38.378  1.00  0.00     0.019 C 
ATOM     36  C   UNL     1      57.635  22.023  39.224  1.00  0.00     0.006 C 
ENDBRANCH  34  35
ENDBRANCH  28  34
ENDBRANCH  18  19
ENDBRANCH  12  13
ENDBRANCH   1  12
TORSDOF 11
ENDMDL
MODEL 5
REMARK VINA RESULT:    -7.149      2.040      3.999
REMARK INTER + INTRA:         -12.325
REMARK INTER:                 -11.333
REMARK INTRA:                  -0.993
REMARK UNBOUND:                -0.789
REMARK SMILES CCCn1c(=O)c2[nH]c(-c3ccc(OCC(=O)NCC[NH3+])cc3)nc2n(CCC)c1=O
REMARK SMILES IDX 15 1 16 2 18 3 17 4 19 6 20 7 21 8 14 12 13 13 12 14 22 15
REMARK SMILES IDX 11 16 23 17 10 18 9 19 24 20 8 21 25 22 7 23 26 24 5 25
REMARK SMILES IDX 30 26 6 27 4 28 31 29 27 31 28 32 29 33 3 34 2 35 1 36
REMARK H PARENT 18 5 21 9 21 10 21 11 8 30
REMARK INDEX MAP 7 1 5 2 4 3 6 4 39 5 3 6 1 7 2 8 34 9 35 10 36 11 8 12 9 13
REMARK INDEX MAP 10 14 11 15 12 16 13 17 14 18 15 19 16 20 17 21 18 22 19 23
REMARK INDEX MAP 20 24 21 25 22 26 24 27 25 28 26 29 46 30 23 31 27 32 29 33
REMARK INDEX MAP 28 34 30 35 31 36
ROOT
ATOM      1  C   UNL     1      44.552  22.109  31.552  1.00  0.00     0.329 C 
ENDROOT
BRANCH   1   2
ATOM      2  C   UNL     1      44.887  22.606  30.178  1.00  0.00     0.258 C 
ATOM      3  N   UNL     1      44.020  23.641  29.522  1.00  0.00    -0.347 N 
ATOM      4  O   UNL     1      46.089  22.069  29.457  1.00  0.00    -0.271 OA
ATOM      5  H   UNL     1      43.219  23.999  30.002  1.00  0.00     0.163 HD
BRANCH   3   6
ATOM      6  C   UNL     1      44.356  24.138  28.147  1.00  0.00     0.177 C 
BRANCH   6   7
ATOM      7  C   UNL     1      45.403  25.196  27.967  1.00  0.00     0.280 C 
BRANCH   7   8
ATOM      8  N   UNL     1      46.736  25.054  28.642  1.00  0.00    -0.356 N 
ATOM      9  H   UNL     1      46.914  24.088  28.827  1.00  0.00     0.344 HD
ATOM     10  H   UNL     1      47.350  25.809  28.871  1.00  0.00     0.344 HD
ATOM     11  H   UNL     1      47.598  24.825  29.092  1.00  0.00     0.344 HD
ENDBRANCH   7   8
ENDBRANCH   6   7
ENDBRANCH   3   6
ENDBRANCH   1   2
BRANCH   1  12
ATOM     12  O   UNL     1      45.252  20.902  32.105  1.00  0.00    -0.484 OA
BRANCH  12  13
ATOM     13  C   UNL     1      46.406  21.071  33.048  1.00  0.00     0.120 A 
ATOM     14  C   UNL     1      47.770  21.395  32.514  1.00  0.00     0.047 A 
ATOM     15  C   UNL     1      46.196  20.916  34.525  1.00  0.00     0.047 A 
ATOM     16  C   UNL     1      48.924  21.564  33.458  1.00  0.00     0.016 A 
ATOM     17  C   UNL     1      47.350  21.085  35.468  1.00  0.00     0.016 A 
ATOM     18  C   UNL     1      48.714  21.409  34.935  1.00  0.00     0.018 A 
BRANCH  18  19
ATOM     19  C   UNL     1      49.867  21.577  35.879  1.00  0.00     0.140 A 
ATOM     20  N   UNL     1      49.873  22.417  37.122  1.00  0.00    -0.210 NA
ATOM     21  N   UNL     1      51.217  20.936  35.747  1.00  0.00    -0.332 N 
ATOM     22  C   UNL     1      51.226  22.295  37.757  1.00  0.00     0.168 A 
ATOM     23  C   UNL     1      52.056  21.380  36.908  1.00  0.00     0.150 A 
ATOM     24  N   UNL     1      51.809  22.899  39.001  1.00  0.00    -0.276 N 
ATOM     25  C   UNL     1      53.471  21.069  37.301  1.00  0.00     0.282 A 
ATOM     26  C   UNL     1      53.223  22.588  39.394  1.00  0.00     0.332 A 
ATOM     27  O   UNL     1      54.301  20.154  36.450  1.00  0.00    -0.267 OA
ATOM     28  N   UNL     1      54.054  21.673  38.544  1.00  0.00    -0.258 N 
ATOM     29  O   UNL     1      53.806  23.192  40.637  1.00  0.00    -0.247 OA
ATOM     30  H   UNL     1      51.506  20.322  35.013  1.00  0.00     0.168 HD
BRANCH  24  31
ATOM     31  C   UNL     1      50.978  23.814  39.851  1.00  0.00     0.129 C 
BRANCH  31  32
ATOM     32  C   UNL     1      50.062  23.243  40.893  1.00  0.00     0.019 C 
ATOM     33  C   UNL     1      49.921  23.924  42.222  1.00  0.00     0.006 C 
ENDBRANCH  31  32
ENDBRANCH  24  31
BRANCH  28  34
ATOM     34  C   UNL     1      55.467  21.361  38.936  1.00  0.00     0.131 C 
BRANCH  34  35
ATOM     35  C   UNL     1      56.603  22.121  38.318  1.00  0.00     0.019 C 
ATOM     36  C   UNL     1      57.524  21.438  37.351  1.00  0.00     0.006 C 
ENDBRANCH  34  35
ENDBRANCH  28  34
ENDBRANCH  18  19
ENDBRANCH  12  13
ENDBRANCH   1  12
TORSDOF 11
ENDMDL
MODEL 6
REMARK VINA RESULT:    -7.147      2.279      4.335
REMARK INTER + INTRA:         -12.322
REMARK INTER:                 -11.505
REMARK INTRA:                  -0.817
REMARK UNBOUND:                -0.789
REMARK SMILES CCCn1c(=O)c2[nH]c(-c3ccc(OCC(=O)NCC[NH3+])cc3)nc2n(CCC)c1=O
REMARK SMILES IDX 15 1 16 2 18 3 17 4 19 6 20 7 21 8 14 12 13 13 12 14 22 15
REMARK SMILES IDX 11 16 23 17 10 18 9 19 24 20 8 21 25 22 7 23 26 24 5 25
REMARK SMILES IDX 30 26 6 27 4 28 31 29 27 31 28 32 29 33 3 34 2 35 1 36
REMARK H PARENT 18 5 21 9 21 10 21 11 8 30
REMARK INDEX MAP 7 1 5 2 4 3 6 4 39 5 3 6 1 7 2 8 34 9 35 10 36 11 8 12 9 13
REMARK INDEX MAP 10 14 11 15 12 16 13 17 14 18 15 19 16 20 17 21 18 22 19 23
REMARK INDEX MAP 20 24 21 25 22 26 24 27 25 28 26 29 46 30 23 31 27 32 29 33
REMARK INDEX MAP 28 34 30 35 31 36
ROOT
ATOM      1  C   UNL     1      43.937  21.812  33.348  1.00  0.00     0.329 C 
ENDROOT
BRANCH   1   2
ATOM      2  C   UNL     1      44.014  22.511  32.024  1.00  0.00     0.258 C 
ATOM      3  N   UNL     1      45.302  22.526  31.256  1.00  0.00    -0.347 N 
ATOM      4  O   UNL     1      42.801  23.196  31.466  1.00  0.00    -0.271 OA
ATOM      5  H   UNL     1      46.111  22.070  31.627  1.00  0.00     0.163 HD
BRANCH   3   6
ATOM      6  C   UNL     1      45.378  23.226  29.931  1.00  0.00     0.177 C 
BRANCH   6   7
ATOM      7  C   UNL     1      46.713  23.518  29.313  1.00  0.00     0.280 C 
BRANCH   7   8
ATOM      8  N   UNL     1      47.205  24.933  29.224  1.00  0.00    -0.356 N 
ATOM      9  H   UNL     1      46.816  25.468  29.974  1.00  0.00     0.344 HD
ATOM     10  H   UNL     1      47.825  25.285  28.523  1.00  0.00     0.344 HD
ATOM     11  H   UNL     1      47.457  25.898  29.277  1.00  0.00     0.344 HD
ENDBRANCH   7   8
ENDBRANCH   6   7
ENDBRANCH   3   6
ENDBRANCH   1   2
BRANCH   1  12
ATOM     12  O   UNL     1      44.692  20.534  33.567  1.00  0.00    -0.484 OA
BRANCH  12  13
ATOM     13  C   UNL     1      46.083  20.571  34.128  1.00  0.00     0.120 A 
ATOM     14  C   UNL     1      47.249  20.185  33.267  1.00  0.00     0.047 A 
ATOM     15  C   UNL     1      46.306  20.993  35.550  1.00  0.00     0.047 A 
ATOM     16  C   UNL     1      48.640  20.222  33.828  1.00  0.00     0.016 A 
ATOM     17  C   UNL     1      47.697  21.030  36.111  1.00  0.00     0.016 A 
ATOM     18  C   UNL     1      48.864  20.644  35.250  1.00  0.00     0.018 A 
BRANCH  18  19
ATOM     19  C   UNL     1      50.254  20.681  35.812  1.00  0.00     0.140 A 
ATOM     20  N   UNL     1      50.791  21.704  36.770  1.00  0.00    -0.210 NA
ATOM     21  N   UNL     1      51.353  19.703  35.516  1.00  0.00    -0.332 N 
ATOM     22  C   UNL     1      52.220  21.357  37.065  1.00  0.00     0.168 A 
ATOM     23  C   UNL     1      52.567  20.121  36.290  1.00  0.00     0.150 A 
ATOM     24  N   UNL     1      53.250  22.009  37.940  1.00  0.00    -0.276 N 
ATOM     25  C   UNL     1      53.945  19.535  36.389  1.00  0.00     0.282 A 
ATOM     26  C   UNL     1      54.628  21.423  38.039  1.00  0.00     0.332 A 
ATOM     27  O   UNL     1      54.291  18.299  35.614  1.00  0.00    -0.267 OA
ATOM     28  N   UNL     1      54.975  20.187  37.264  1.00  0.00    -0.258 N 
ATOM     29  O   UNL     1      55.658  22.074  38.914  1.00  0.00    -0.247 OA
ATOM     30  H   UNL     1      51.286  18.912  34.909  1.00  0.00     0.168 HD
BRANCH  24  31
ATOM     31  C   UNL     1      52.903  23.245  38.715  1.00  0.00     0.129 C 
BRANCH  31  32
ATOM     32  C   UNL     1      52.435  23.133  40.135  1.00  0.00     0.019 C 
ATOM     33  C   UNL     1      52.940  24.094  41.170  1.00  0.00     0.006 C 
ENDBRANCH  31  32
ENDBRANCH  24  31
BRANCH  28  34
ATOM     34  C   UNL     1      56.352  19.600  37.363  1.00  0.00     0.131 C 
BRANCH  34  35
ATOM     35  C   UNL     1      56.601  18.413  38.246  1.00  0.00     0.019 C 
ATOM     36  C   UNL     1      56.246  18.473  39.702  1.00  0.00     0.006 C 
ENDBRANCH  34  35
ENDBRANCH  28  34
ENDBRANCH  18  19
ENDBRANCH  12  13
ENDBRANCH   1  12
TORSDOF 11
ENDMDL
MODEL 7
REMARK VINA RESULT:    -7.047      2.538     10.141
REMARK INTER + INTRA:         -12.161
REMARK INTER:                 -11.177
REMARK INTRA:                  -0.985
REMARK UNBOUND:                -0.789
REMARK SMILES CCCn1c(=O)c2[nH]c(-c3ccc(OCC(=O)NCC[NH3+])cc3)nc2n(CCC)c1=O
REMARK SMILES IDX 15 1 16 2 18 3 17 4 19 6 20 7 21 8 14 12 13 13 12 14 22 15
REMARK SMILES IDX 11 16 23 17 10 18 9 19 24 20 8 21 25 22 7 23 26 24 5 25
REMARK SMILES IDX 30 26 6 27 4 28 31 29 27 31 28 32 29 33 3 34 2 35 1 36
REMARK H PARENT 18 5 21 9 21 10 21 11 8 30
REMARK INDEX MAP 7 1 5 2 4 3 6 4 39 5 3 6 1 7 2 8 34 9 35 10 36 11 8 12 9 13
REMARK INDEX MAP 10 14 11 15 12 16 13 17 14 18 15 19 16 20 17 21 18 22 19 23
REMARK INDEX MAP 20 24 21 25 22 26 24 27 25 28 26 29 46 30 23 31 27 32 29 33
REMARK INDEX MAP 28 34 30 35 31 36
ROOT
ATOM      1  C   UNL     1      53.194  23.582  40.011  1.00  0.00     0.329 C 
ENDROOT
BRANCH   1   2
ATOM      2  C   UNL     1      52.018  23.222  40.868  1.00  0.00     0.258 C 
ATOM      3  N   UNL     1      51.190  24.302  41.499  1.00  0.00    -0.347 N 
ATOM      4  O   UNL     1      51.668  21.780  41.094  1.00  0.00    -0.271 OA
ATOM      5  H   UNL     1      51.423  25.262  41.348  1.00  0.00     0.163 HD
BRANCH   3   6
ATOM      6  C   UNL     1      50.012  23.941  42.356  1.00  0.00     0.177 C 
BRANCH   6   7
ATOM      7  C   UNL     1      50.228  23.446  43.756  1.00  0.00     0.280 C 
BRANCH   7   8
ATOM      8  N   UNL     1      50.570  22.006  43.998  1.00  0.00    -0.356 N 
ATOM      9  H   UNL     1      49.919  21.613  44.646  1.00  0.00     0.344 HD
ATOM     10  H   UNL     1      51.333  21.515  43.576  1.00  0.00     0.344 HD
ATOM     11  H   UNL     1      50.691  21.045  44.244  1.00  0.00     0.344 HD
ENDBRANCH   7   8
ENDBRANCH   6   7
ENDBRANCH   3   6
ENDBRANCH   1   2
BRANCH   1  12
ATOM     12  O   UNL     1      53.547  22.734  38.825  1.00  0.00    -0.484 OA
BRANCH  12  13
ATOM     13  C   UNL     1      52.593  22.621  37.673  1.00  0.00     0.120 A 
ATOM     14  C   UNL     1      52.104  23.859  36.980  1.00  0.00     0.047 A 
ATOM     15  C   UNL     1      52.128  21.271  37.214  1.00  0.00     0.047 A 
ATOM     16  C   UNL     1      51.150  23.747  35.828  1.00  0.00     0.016 A 
ATOM     17  C   UNL     1      51.173  21.159  36.062  1.00  0.00     0.016 A 
ATOM     18  C   UNL     1      50.685  22.397  35.369  1.00  0.00     0.018 A 
BRANCH  18  19
ATOM     19  C   UNL     1      49.731  22.284  34.217  1.00  0.00     0.140 A 
ATOM     20  N   UNL     1      48.950  21.060  33.836  1.00  0.00    -0.210 NA
ATOM     21  N   UNL     1      49.389  23.373  33.244  1.00  0.00    -0.332 N 
ATOM     22  C   UNL     1      48.127  21.394  32.628  1.00  0.00     0.168 A 
ATOM     23  C   UNL     1      48.397  22.822  32.262  1.00  0.00     0.150 A 
ATOM     24  N   UNL     1      47.165  20.580  31.813  1.00  0.00    -0.276 N 
ATOM     25  C   UNL     1      47.707  23.439  31.081  1.00  0.00     0.282 A 
ATOM     26  C   UNL     1      46.474  21.196  30.633  1.00  0.00     0.332 A 
ATOM     27  O   UNL     1      47.978  24.868  30.715  1.00  0.00    -0.267 OA
ATOM     28  N   UNL     1      46.745  22.625  30.266  1.00  0.00    -0.258 N 
ATOM     29  O   UNL     1      45.512  20.383  29.818  1.00  0.00    -0.247 OA
ATOM     30  H   UNL     1      49.757  24.302  33.249  1.00  0.00     0.168 HD
BRANCH  24  31
ATOM     31  C   UNL     1      46.894  19.151  32.180  1.00  0.00     0.129 C 
BRANCH  31  32
ATOM     32  C   UNL     1      46.009  18.831  33.347  1.00  0.00     0.019 C 
ATOM     33  C   UNL     1      44.802  17.960  33.158  1.00  0.00     0.006 C 
ENDBRANCH  31  32
ENDBRANCH  24  31
BRANCH  28  34
ATOM     34  C   UNL     1      46.054  23.241  29.086  1.00  0.00     0.131 C 
BRANCH  34  35
ATOM     35  C   UNL     1      44.607  23.625  29.179  1.00  0.00     0.019 C 
ATOM     36  C   UNL     1      43.972  24.426  28.081  1.00  0.00     0.006 C 
ENDBRANCH  34  35
ENDBRANCH  28  34
ENDBRANCH  18  19
ENDBRANCH  12  13
ENDBRANCH   1  12
TORSDOF 11
ENDMDL
MODEL 8
REMARK VINA RESULT:    -7.020      5.219      6.462
REMARK INTER + INTRA:         -12.118
REMARK INTER:                 -11.424
REMARK INTRA:                  -0.694
REMARK UNBOUND:                -0.789
REMARK SMILES CCCn1c(=O)c2[nH]c(-c3ccc(OCC(=O)NCC[NH3+])cc3)nc2n(CCC)c1=O
REMARK SMILES IDX 15 1 16 2 18 3 17 4 19 6 20 7 21 8 14 12 13 13 12 14 22 15
REMARK SMILES IDX 11 16 23 17 10 18 9 19 24 20 8 21 25 22 7 23 26 24 5 25
REMARK SMILES IDX 30 26 6 27 4 28 31 29 27 31 28 32 29 33 3 34 2 35 1 36
REMARK H PARENT 18 5 21 9 21 10 21 11 8 30
REMARK INDEX MAP 7 1 5 2 4 3 6 4 39 5 3 6 1 7 2 8 34 9 35 10 36 11 8 12 9 13
REMARK INDEX MAP 10 14 11 15 12 16 13 17 14 18 15 19 16 20 17 21 18 22 19 23
REMARK INDEX MAP 20 24 21 25 22 26 24 27 25 28 26 29 46 30 23 31 27 32 29 33
REMARK INDEX MAP 28 34 30 35 31 36
ROOT
ATOM      1  C   UNL     1      46.067  21.098  31.730  1.00  0.00     0.329 C 
ENDROOT
BRANCH   1   2
ATOM      2  C   UNL     1      45.537  20.102  32.717  1.00  0.00     0.258 C 
ATOM      3  N   UNL     1      45.542  18.639  32.384  1.00  0.00    -0.347 N 
ATOM      4  O   UNL     1      45.001  20.568  34.039  1.00  0.00    -0.271 OA
ATOM      5  H   UNL     1      45.900  18.328  31.503  1.00  0.00     0.163 HD
BRANCH   3   6
ATOM      6  C   UNL     1      45.012  17.643  33.372  1.00  0.00     0.177 C 
BRANCH   6   7
ATOM      7  C   UNL     1      43.543  17.595  33.673  1.00  0.00     0.280 C 
BRANCH   7   8
ATOM      8  N   UNL     1      42.718  16.435  33.200  1.00  0.00    -0.356 N 
ATOM      9  H   UNL     1      42.613  16.484  32.207  1.00  0.00     0.344 HD
ATOM     10  H   UNL     1      42.334  15.723  33.787  1.00  0.00     0.344 HD
ATOM     11  H   UNL     1      42.185  15.714  32.758  1.00  0.00     0.344 HD
ENDBRANCH   7   8
ENDBRANCH   6   7
ENDBRANCH   3   6
ENDBRANCH   1   2
BRANCH   1  12
ATOM     12  O   UNL     1      46.419  22.486  32.179  1.00  0.00    -0.484 OA
BRANCH  12  13
ATOM     13  C   UNL     1      47.858  22.886  32.320  1.00  0.00     0.120 A 
ATOM     14  C   UNL     1      48.378  24.088  31.588  1.00  0.00     0.047 A 
ATOM     15  C   UNL     1      48.777  22.083  33.193  1.00  0.00     0.047 A 
ATOM     16  C   UNL     1      49.817  24.488  31.730  1.00  0.00     0.016 A 
ATOM     17  C   UNL     1      50.216  22.483  33.334  1.00  0.00     0.016 A 
ATOM     18  C   UNL     1      50.735  23.686  32.602  1.00  0.00     0.018 A 
BRANCH  18  19
ATOM     19  C   UNL     1      52.174  24.085  32.744  1.00  0.00     0.140 A 
ATOM     20  N   UNL     1      52.925  25.012  31.835  1.00  0.00    -0.210 NA
ATOM     21  N   UNL     1      53.115  23.628  33.820  1.00  0.00    -0.332 N 
ATOM     22  C   UNL     1      54.330  25.128  32.348  1.00  0.00     0.168 A 
ATOM     23  C   UNL     1      54.447  24.273  33.574  1.00  0.00     0.150 A 
ATOM     24  N   UNL     1      55.517  25.902  31.857  1.00  0.00    -0.276 N 
ATOM     25  C   UNL     1      55.752  24.191  34.310  1.00  0.00     0.282 A 
ATOM     26  C   UNL     1      56.822  25.821  32.592  1.00  0.00     0.332 A 
ATOM     27  O   UNL     1      55.869  23.335  35.537  1.00  0.00    -0.267 OA
ATOM     28  N   UNL     1      56.940  24.965  33.819  1.00  0.00    -0.258 N 
ATOM     29  O   UNL     1      58.010  26.594  32.102  1.00  0.00    -0.247 OA
ATOM     30  H   UNL     1      52.893  23.003  34.568  1.00  0.00     0.168 HD
BRANCH  24  31
ATOM     31  C   UNL     1      55.400  26.758  30.630  1.00  0.00     0.129 C 
BRANCH  31  32
ATOM     32  C   UNL     1      55.043  26.135  29.314  1.00  0.00     0.019 C 
ATOM     33  C   UNL     1      55.803  24.940  28.818  1.00  0.00     0.006 C 
ENDBRANCH  31  32
ENDBRANCH  24  31
BRANCH  28  34
ATOM     34  C   UNL     1      58.244  24.883  34.555  1.00  0.00     0.131 C 
BRANCH  34  35
ATOM     35  C   UNL     1      58.569  25.887  35.622  1.00  0.00     0.019 C 
ATOM     36  C   UNL     1      57.755  27.141  35.744  1.00  0.00     0.006 C 
ENDBRANCH  34  35
ENDBRANCH  28  34
ENDBRANCH  18  19
ENDBRANCH  12  13
ENDBRANCH   1  12
TORSDOF 11
ENDMDL
MODEL 9
REMARK VINA RESULT:    -6.972      2.731      4.523
REMARK INTER + INTRA:         -12.040
REMARK INTER:                 -11.786
REMARK INTRA:                  -0.253
REMARK UNBOUND:                -0.789
REMARK SMILES CCCn1c(=O)c2[nH]c(-c3ccc(OCC(=O)NCC[NH3+])cc3)nc2n(CCC)c1=O
REMARK SMILES IDX 15 1 16 2 18 3 17 4 19 6 20 7 21 8 14 12 13 13 12 14 22 15
REMARK SMILES IDX 11 16 23 17 10 18 9 19 24 20 8 21 25 22 7 23 26 24 5 25
REMARK SMILES IDX 30 26 6 27 4 28 31 29 27 31 28 32 29 33 3 34 2 35 1 36
REMARK H PARENT 18 5 21 9 21 10 21 11 8 30
REMARK INDEX MAP 7 1 5 2 4 3 6 4 39 5 3 6 1 7 2 8 34 9 35 10 36 11 8 12 9 13
REMARK INDEX MAP 10 14 11 15 12 16 13 17 14 18 15 19 16 20 17 21 18 22 19 23
REMARK INDEX MAP 20 24 21 25 22 26 24 27 25 28 26 29 46 30 23 31 27 32 29 33
REMARK INDEX MAP 28 34 30 35 31 36
ROOT
ATOM      1  C   UNL     1      46.229  20.421  31.002  1.00  0.00     0.329 C 
ENDROOT
BRANCH   1   2
ATOM      2  C   UNL     1      45.541  19.772  32.165  1.00  0.00     0.258 C 
ATOM      3  N   UNL     1      45.631  18.286  32.356  1.00  0.00    -0.347 N 
ATOM      4  O   UNL     1      44.761  20.607  33.137  1.00  0.00    -0.271 OA
ATOM      5  H   UNL     1      46.150  17.730  31.708  1.00  0.00     0.163 HD
BRANCH   3   6
ATOM      6  C   UNL     1      44.941  17.637  33.520  1.00  0.00     0.177 C 
BRANCH   6   7
ATOM      7  C   UNL     1      43.452  17.463  33.507  1.00  0.00     0.280 C 
BRANCH   7   8
ATOM      8  N   UNL     1      42.839  16.300  32.784  1.00  0.00    -0.356 N 
ATOM      9  H   UNL     1      43.005  16.393  31.803  1.00  0.00     0.344 HD
ATOM     10  H   UNL     1      42.341  15.549  33.217  1.00  0.00     0.344 HD
ATOM     11  H   UNL     1      42.478  15.584  32.188  1.00  0.00     0.344 HD
ENDBRANCH   7   8
ENDBRANCH   6   7
ENDBRANCH   3   6
ENDBRANCH   1   2
BRANCH   1  12
ATOM     12  O   UNL     1      47.055  21.656  31.213  1.00  0.00    -0.484 OA
BRANCH  12  13
ATOM     13  C   UNL     1      48.050  21.711  32.334  1.00  0.00     0.120 A 
ATOM     14  C   UNL     1      48.237  20.522  33.230  1.00  0.00     0.047 A 
ATOM     15  C   UNL     1      48.859  22.954  32.558  1.00  0.00     0.047 A 
ATOM     16  C   UNL     1      49.232  20.577  34.351  1.00  0.00     0.016 A 
ATOM     17  C   UNL     1      49.854  23.009  33.679  1.00  0.00     0.016 A 
ATOM     18  C   UNL     1      50.041  21.820  34.575  1.00  0.00     0.018 A 
BRANCH  18  19
ATOM     19  C   UNL     1      51.036  21.876  35.695  1.00  0.00     0.140 A 
ATOM     20  N   UNL     1      50.843  22.569  37.012  1.00  0.00    -0.210 NA
ATOM     21  N   UNL     1      52.400  21.250  35.697  1.00  0.00    -0.332 N 
ATOM     22  C   UNL     1      52.087  22.370  37.827  1.00  0.00     0.168 A 
ATOM     23  C   UNL     1      53.048  21.555  37.015  1.00  0.00     0.150 A 
ATOM     24  N   UNL     1      52.468  22.826  39.205  1.00  0.00    -0.276 N 
ATOM     25  C   UNL     1      54.392  21.196  37.579  1.00  0.00     0.282 A 
ATOM     26  C   UNL     1      53.810  22.467  39.769  1.00  0.00     0.332 A 
ATOM     27  O   UNL     1      55.353  20.381  36.765  1.00  0.00    -0.267 OA
ATOM     28  N   UNL     1      54.772  21.652  38.956  1.00  0.00    -0.258 N 
ATOM     29  O   UNL     1      54.192  22.923  41.146  1.00  0.00    -0.247 OA
ATOM     30  H   UNL     1      52.804  20.721  34.951  1.00  0.00     0.168 HD
BRANCH  24  31
ATOM     31  C   UNL     1      51.506  23.641  40.017  1.00  0.00     0.129 C 
BRANCH  31  32
ATOM     32  C   UNL     1      50.631  22.973  41.035  1.00  0.00     0.019 C 
ATOM     33  C   UNL     1      49.906  23.796  42.059  1.00  0.00     0.006 C 
ENDBRANCH  31  32
ENDBRANCH  24  31
BRANCH  28  34
ATOM     34  C   UNL     1      56.115  21.293  39.520  1.00  0.00     0.131 C 
BRANCH  34  35
ATOM     35  C   UNL     1      56.268  20.068  40.372  1.00  0.00     0.019 C 
ATOM     36  C   UNL     1      56.235  18.707  39.743  1.00  0.00     0.006 C 
ENDBRANCH  34  35
ENDBRANCH  28  34
ENDBRANCH  18  19
ENDBRANCH  12  13
ENDBRANCH   1  12
TORSDOF 11
ENDMDL
MODEL 10
REMARK VINA RESULT:    -6.823      5.695     10.278
REMARK INTER + INTRA:         -11.799
REMARK INTER:                 -10.951
REMARK INTRA:                  -0.849
REMARK UNBOUND:                -0.789
REMARK SMILES CCCn1c(=O)c2[nH]c(-c3ccc(OCC(=O)NCC[NH3+])cc3)nc2n(CCC)c1=O
REMARK SMILES IDX 15 1 16 2 18 3 17 4 19 6 20 7 21 8 14 12 13 13 12 14 22 15
REMARK SMILES IDX 11 16 23 17 10 18 9 19 24 20 8 21 25 22 7 23 26 24 5 25
REMARK SMILES IDX 30 26 6 27 4 28 31 29 27 31 28 32 29 33 3 34 2 35 1 36
REMARK H PARENT 18 5 21 9 21 10 21 11 8 30
REMARK INDEX MAP 7 1 5 2 4 3 6 4 39 5 3 6 1 7 2 8 34 9 35 10 36 11 8 12 9 13
REMARK INDEX MAP 10 14 11 15 12 16 13 17 14 18 15 19 16 20 17 21 18 22 19 23
REMARK INDEX MAP 20 24 21 25 22 26 24 27 25 28 26 29 46 30 23 31 27 32 29 33
REMARK INDEX MAP 28 34 30 35 31 36
ROOT
ATOM      1  C   UNL     1      56.769  27.077  30.987  1.00  0.00     0.329 C 
ENDROOT
BRANCH   1   2
ATOM      2  C   UNL     1      57.761  26.122  30.393  1.00  0.00     0.258 C 
ATOM      3  N   UNL     1      57.361  24.705  30.108  1.00  0.00    -0.347 N 
ATOM      4  O   UNL     1      59.155  26.585  30.084  1.00  0.00    -0.271 OA
ATOM      5  H   UNL     1      56.432  24.397  30.314  1.00  0.00     0.163 HD
BRANCH   3   6
ATOM      6  C   UNL     1      58.354  23.750  29.513  1.00  0.00     0.177 C 
BRANCH   6   7
ATOM      7  C   UNL     1      58.090  23.133  28.172  1.00  0.00     0.280 C 
BRANCH   7   8
ATOM      8  N   UNL     1      56.698  23.122  27.613  1.00  0.00    -0.356 N 
ATOM      9  H   UNL     1      56.731  23.318  26.633  1.00  0.00     0.344 HD
ATOM     10  H   UNL     1      55.866  22.946  28.139  1.00  0.00     0.344 HD
ATOM     11  H   UNL     1      55.829  23.144  27.120  1.00  0.00     0.344 HD
ENDBRANCH   7   8
ENDBRANCH   6   7
ENDBRANCH   3   6
ENDBRANCH   1   2
BRANCH   1  12
ATOM     12  O   UNL     1      56.144  26.778  32.318  1.00  0.00    -0.484 OA
BRANCH  12  13
ATOM     13  C   UNL     1      54.838  26.044  32.386  1.00  0.00     0.120 A 
ATOM     14  C   UNL     1      54.461  25.297  33.631  1.00  0.00     0.047 A 
ATOM     15  C   UNL     1      53.910  26.056  31.208  1.00  0.00     0.047 A 
ATOM     16  C   UNL     1      53.155  24.562  33.699  1.00  0.00     0.016 A 
ATOM     17  C   UNL     1      52.603  25.321  31.276  1.00  0.00     0.016 A 
ATOM     18  C   UNL     1      52.227  24.574  32.521  1.00  0.00     0.018 A 
BRANCH  18  19
ATOM     19  C   UNL     1      50.920  23.840  32.588  1.00  0.00     0.140 A 
ATOM     20  N   UNL     1      49.706  24.125  31.754  1.00  0.00    -0.210 NA
ATOM     21  N   UNL     1      50.598  22.692  33.499  1.00  0.00    -0.332 N 
ATOM     22  C   UNL     1      48.634  23.153  32.151  1.00  0.00     0.168 A 
ATOM     23  C   UNL     1      49.185  22.268  33.228  1.00  0.00     0.150 A 
ATOM     24  N   UNL     1      47.226  22.960  31.668  1.00  0.00    -0.276 N 
ATOM     25  C   UNL     1      48.330  21.189  33.825  1.00  0.00     0.282 A 
ATOM     26  C   UNL     1      46.370  21.882  32.265  1.00  0.00     0.332 A 
ATOM     27  O   UNL     1      48.882  20.305  34.903  1.00  0.00    -0.267 OA
ATOM     28  N   UNL     1      46.922  20.997  33.343  1.00  0.00    -0.258 N 
ATOM     29  O   UNL     1      44.963  21.688  31.783  1.00  0.00    -0.247 OA
ATOM     30  H   UNL     1      51.217  22.283  34.168  1.00  0.00     0.168 HD
BRANCH  24  31
ATOM     31  C   UNL     1      46.675  23.845  30.590  1.00  0.00     0.129 C 
BRANCH  31  32
ATOM     32  C   UNL     1      47.004  23.570  29.153  1.00  0.00     0.019 C 
ATOM     33  C   UNL     1      48.184  24.239  28.512  1.00  0.00     0.006 C 
ENDBRANCH  31  32
ENDBRANCH  24  31
BRANCH  28  34
ATOM     34  C   UNL     1      46.067  19.918  33.939  1.00  0.00     0.131 C 
BRANCH  34  35
ATOM     35  C   UNL     1      45.903  18.609  33.226  1.00  0.00     0.019 C 
ATOM     36  C   UNL     1      44.602  17.867  33.311  1.00  0.00     0.006 C 
ENDBRANCH  34  35
ENDBRANCH  28  34
ENDBRANCH  18  19
ENDBRANCH  12  13
ENDBRANCH   1  12
TORSDOF 11
ENDMDL
MODEL 11
REMARK VINA RESULT:    -6.816      5.962      9.623
REMARK INTER + INTRA:         -11.788
REMARK INTER:                 -10.875
REMARK INTRA:                  -0.914
REMARK UNBOUND:                -0.789
REMARK SMILES CCCn1c(=O)c2[nH]c(-c3ccc(OCC(=O)NCC[NH3+])cc3)nc2n(CCC)c1=O
REMARK SMILES IDX 15 1 16 2 18 3 17 4 19 6 20 7 21 8 14 12 13 13 12 14 22 15
REMARK SMILES IDX 11 16 23 17 10 18 9 19 24 20 8 21 25 22 7 23 26 24 5 25
REMARK SMILES IDX 30 26 6 27 4 28 31 29 27 31 28 32 29 33 3 34 2 35 1 36
REMARK H PARENT 18 5 21 9 21 10 21 11 8 30
REMARK INDEX MAP 7 1 5 2 4 3 6 4 39 5 3 6 1 7 2 8 34 9 35 10 36 11 8 12 9 13
REMARK INDEX MAP 10 14 11 15 12 16 13 17 14 18 15 19 16 20 17 21 18 22 19 23
REMARK INDEX MAP 20 24 21 25 22 26 24 27 25 28 26 29 46 30 23 31 27 32 29 33
REMARK INDEX MAP 28 34 30 35 31 36
ROOT
ATOM      1  C   UNL     1      57.633  26.709  30.997  1.00  0.00     0.329 C 
ENDROOT
BRANCH   1   2
ATOM      2  C   UNL     1      58.040  25.909  29.797  1.00  0.00     0.258 C 
ATOM      3  N   UNL     1      57.694  24.451  29.714  1.00  0.00    -0.347 N 
ATOM      4  O   UNL     1      58.793  26.565  28.678  1.00  0.00    -0.271 OA
ATOM      5  H   UNL     1      57.192  24.014  30.460  1.00  0.00     0.163 HD
BRANCH   3   6
ATOM      6  C   UNL     1      58.101  23.651  28.512  1.00  0.00     0.177 C 
BRANCH   6   7
ATOM      7  C   UNL     1      57.282  23.714  27.257  1.00  0.00     0.280 C 
BRANCH   7   8
ATOM      8  N   UNL     1      56.987  22.459  26.491  1.00  0.00    -0.356 N 
ATOM      9  H   UNL     1      56.328  21.905  26.999  1.00  0.00     0.344 HD
ATOM     10  H   UNL     1      57.387  22.214  25.607  1.00  0.00     0.344 HD
ATOM     11  H   UNL     1      56.706  21.590  26.083  1.00  0.00     0.344 HD
ENDBRANCH   7   8
ENDBRANCH   6   7
ENDBRANCH   3   6
ENDBRANCH   1   2
BRANCH   1  12
ATOM     12  O   UNL     1      56.260  27.309  31.071  1.00  0.00    -0.484 OA
BRANCH  12  13
ATOM     13  C   UNL     1      55.104  26.480  31.548  1.00  0.00     0.120 A 
ATOM     14  C   UNL     1      53.878  26.341  30.695  1.00  0.00     0.047 A 
ATOM     15  C   UNL     1      55.175  25.790  32.878  1.00  0.00     0.047 A 
ATOM     16  C   UNL     1      52.722  25.512  31.173  1.00  0.00     0.016 A 
ATOM     17  C   UNL     1      54.020  24.961  33.355  1.00  0.00     0.016 A 
ATOM     18  C   UNL     1      52.793  24.823  32.503  1.00  0.00     0.018 A 
BRANCH  18  19
ATOM     19  C   UNL     1      51.638  23.994  32.981  1.00  0.00     0.140 A 
ATOM     20  N   UNL     1      51.527  23.327  34.320  1.00  0.00    -0.210 NA
ATOM     21  N   UNL     1      50.392  23.685  32.205  1.00  0.00    -0.332 N 
ATOM     22  C   UNL     1      50.212  22.607  34.371  1.00  0.00     0.168 A 
ATOM     23  C   UNL     1      49.511  22.828  33.065  1.00  0.00     0.150 A 
ATOM     24  N   UNL     1      49.563  21.778  35.440  1.00  0.00    -0.276 N 
ATOM     25  C   UNL     1      48.159  22.221  32.825  1.00  0.00     0.282 A 
ATOM     26  C   UNL     1      48.212  21.171  35.202  1.00  0.00     0.332 A 
ATOM     27  O   UNL     1      47.459  22.443  31.518  1.00  0.00    -0.267 OA
ATOM     28  N   UNL     1      47.510  21.392  33.894  1.00  0.00    -0.258 N 
ATOM     29  O   UNL     1      47.562  20.342  36.270  1.00  0.00    -0.247 OA
ATOM     30  H   UNL     1      50.185  23.997  31.278  1.00  0.00     0.168 HD
BRANCH  24  31
ATOM     31  C   UNL     1      50.264  21.556  36.748  1.00  0.00     0.129 C 
BRANCH  31  32
ATOM     32  C   UNL     1      50.204  22.605  37.818  1.00  0.00     0.019 C 
ATOM     33  C   UNL     1      48.978  22.736  38.672  1.00  0.00     0.006 C 
ENDBRANCH  31  32
ENDBRANCH  24  31
BRANCH  28  34
ATOM     34  C   UNL     1      46.160  20.786  33.655  1.00  0.00     0.131 C 
BRANCH  34  35
ATOM     35  C   UNL     1      46.040  19.329  33.314  1.00  0.00     0.019 C 
ATOM     36  C   UNL     1      47.054  18.684  32.416  1.00  0.00     0.006 C 
ENDBRANCH  34  35
ENDBRANCH  28  34
ENDBRANCH  18  19
ENDBRANCH  12  13
ENDBRANCH   1  12
TORSDOF 11
ENDMDL
MODEL 12
REMARK VINA RESULT:    -6.792      5.236     10.183
REMARK INTER + INTRA:         -11.749
REMARK INTER:                 -10.955
REMARK INTRA:                  -0.795
REMARK UNBOUND:                -0.789
REMARK SMILES CCCn1c(=O)c2[nH]c(-c3ccc(OCC(=O)NCC[NH3+])cc3)nc2n(CCC)c1=O
REMARK SMILES IDX 15 1 16 2 18 3 17 4 19 6 20 7 21 8 14 12 13 13 12 14 22 15
REMARK SMILES IDX 11 16 23 17 10 18 9 19 24 20 8 21 25 22 7 23 26 24 5 25
REMARK SMILES IDX 30 26 6 27 4 28 31 29 27 31 28 32 29 33 3 34 2 35 1 36
REMARK H PARENT 18 5 21 9 21 10 21 11 8 30
REMARK INDEX MAP 7 1 5 2 4 3 6 4 39 5 3 6 1 7 2 8 34 9 35 10 36 11 8 12 9 13
REMARK INDEX MAP 10 14 11 15 12 16 13 17 14 18 15 19 16 20 17 21 18 22 19 23
REMARK INDEX MAP 20 24 21 25 22 26 24 27 25 28 26 29 46 30 23 31 27 32 29 33
REMARK INDEX MAP 28 34 30 35 31 36
ROOT
ATOM      1  C   UNL     1      56.325  26.597  31.973  1.00  0.00     0.329 C 
ENDROOT
BRANCH   1   2
ATOM      2  C   UNL     1      57.317  26.135  30.948  1.00  0.00     0.258 C 
ATOM      3  N   UNL     1      57.112  24.828  30.240  1.00  0.00    -0.347 N 
ATOM      4  O   UNL     1      58.516  26.980  30.630  1.00  0.00    -0.271 OA
ATOM      5  H   UNL     1      56.314  24.265  30.452  1.00  0.00     0.163 HD
BRANCH   3   6
ATOM      6  C   UNL     1      58.105  24.367  29.214  1.00  0.00     0.177 C 
BRANCH   6   7
ATOM      7  C   UNL     1      57.881  23.078  28.480  1.00  0.00     0.280 C 
BRANCH   7   8
ATOM      8  N   UNL     1      58.597  21.834  28.914  1.00  0.00    -0.356 N 
ATOM      9  H   UNL     1      57.957  21.066  28.922  1.00  0.00     0.344 HD
ATOM     10  H   UNL     1      59.565  21.780  29.158  1.00  0.00     0.344 HD
ATOM     11  H   UNL     1      58.954  20.941  29.188  1.00  0.00     0.344 HD
ENDBRANCH   7   8
ENDBRANCH   6   7
ENDBRANCH   3   6
ENDBRANCH   1   2
BRANCH   1  12
ATOM     12  O   UNL     1      55.813  25.638  33.007  1.00  0.00    -0.484 OA
BRANCH  12  13
ATOM     13  C   UNL     1      54.410  25.114  32.914  1.00  0.00     0.120 A 
ATOM     14  C   UNL     1      53.730  24.571  34.136  1.00  0.00     0.047 A 
ATOM     15  C   UNL     1      53.688  25.134  31.600  1.00  0.00     0.047 A 
ATOM     16  C   UNL     1      52.327  24.047  34.043  1.00  0.00     0.016 A 
ATOM     17  C   UNL     1      52.285  24.611  31.507  1.00  0.00     0.016 A 
ATOM     18  C   UNL     1      51.605  24.067  32.729  1.00  0.00     0.018 A 
BRANCH  18  19
ATOM     19  C   UNL     1      50.203  23.544  32.635  1.00  0.00     0.140 A 
ATOM     20  N   UNL     1      49.583  22.518  33.537  1.00  0.00    -0.210 NA
ATOM     21  N   UNL     1      49.173  23.953  31.623  1.00  0.00    -0.332 N 
ATOM     22  C   UNL     1      48.171  22.294  33.083  1.00  0.00     0.168 A 
ATOM     23  C   UNL     1      47.918  23.180  31.901  1.00  0.00     0.150 A 
ATOM     24  N   UNL     1      47.083  21.396  33.594  1.00  0.00    -0.276 N 
ATOM     25  C   UNL     1      46.576  23.171  31.228  1.00  0.00     0.282 A 
ATOM     26  C   UNL     1      45.741  21.386  32.922  1.00  0.00     0.332 A 
ATOM     27  O   UNL     1      46.324  24.058  30.045  1.00  0.00    -0.267 OA
ATOM     28  N   UNL     1      45.488  22.273  31.739  1.00  0.00    -0.258 N 
ATOM     29  O   UNL     1      44.653  20.489  33.433  1.00  0.00    -0.247 OA
ATOM     30  H   UNL     1      49.302  24.623  30.893  1.00  0.00     0.168 HD
BRANCH  24  31
ATOM     31  C   UNL     1      47.336  20.509  34.777  1.00  0.00     0.129 C 
BRANCH  31  32
ATOM     32  C   UNL     1      47.084  21.020  36.165  1.00  0.00     0.019 C 
ATOM     33  C   UNL     1      48.237  21.312  37.078  1.00  0.00     0.006 C 
ENDBRANCH  31  32
ENDBRANCH  24  31
BRANCH  28  34
ATOM     34  C   UNL     1      44.148  22.263  31.067  1.00  0.00     0.131 C 
BRANCH  34  35
ATOM     35  C   UNL     1      43.044  23.140  31.580  1.00  0.00     0.019 C 
ATOM     36  C   UNL     1      43.032  23.566  33.018  1.00  0.00     0.006 C 
ENDBRANCH  34  35
ENDBRANCH  28  34
ENDBRANCH  18  19
ENDBRANCH  12  13
ENDBRANCH   1  12
TORSDOF 11
ENDMDL
MODEL 13
REMARK VINA RESULT:    -6.724      4.984      6.275
REMARK INTER + INTRA:         -11.641
REMARK INTER:                 -10.791
REMARK INTRA:                  -0.850
REMARK UNBOUND:                -0.789
REMARK SMILES CCCn1c(=O)c2[nH]c(-c3ccc(OCC(=O)NCC[NH3+])cc3)nc2n(CCC)c1=O
REMARK SMILES IDX 15 1 16 2 18 3 17 4 19 6 20 7 21 8 14 12 13 13 12 14 22 15
REMARK SMILES IDX 11 16 23 17 10 18 9 19 24 20 8 21 25 22 7 23 26 24 5 25
REMARK SMILES IDX 30 26 6 27 4 28 31 29 27 31 28 32 29 33 3 34 2 35 1 36
REMARK H PARENT 18 5 21 9 21 10 21 11 8 30
REMARK INDEX MAP 7 1 5 2 4 3 6 4 39 5 3 6 1 7 2 8 34 9 35 10 36 11 8 12 9 13
REMARK INDEX MAP 10 14 11 15 12 16 13 17 14 18 15 19 16 20 17 21 18 22 19 23
REMARK INDEX MAP 20 24 21 25 22 26 24 27 25 28 26 29 46 30 23 31 27 32 29 33
REMARK INDEX MAP 28 34 30 35 31 36
ROOT
ATOM      1  C   UNL     1      45.759  21.179  31.570  1.00  0.00     0.329 C 
ENDROOT
BRANCH   1   2
ATOM      2  C   UNL     1      44.867  22.207  30.943  1.00  0.00     0.258 C 
ATOM      3  N   UNL     1      45.227  22.802  29.613  1.00  0.00    -0.347 N 
ATOM      4  O   UNL     1      43.614  22.642  31.644  1.00  0.00    -0.271 OA
ATOM      5  H   UNL     1      46.062  22.513  29.146  1.00  0.00     0.163 HD
BRANCH   3   6
ATOM      6  C   UNL     1      44.334  23.832  28.986  1.00  0.00     0.177 C 
BRANCH   6   7
ATOM      7  C   UNL     1      44.870  24.738  27.918  1.00  0.00     0.280 C 
BRANCH   7   8
ATOM      8  N   UNL     1      46.177  25.446  28.123  1.00  0.00    -0.356 N 
ATOM      9  H   UNL     1      46.878  25.023  27.550  1.00  0.00     0.344 HD
ATOM     10  H   UNL     1      46.323  26.222  28.737  1.00  0.00     0.344 HD
ATOM     11  H   UNL     1      47.099  25.829  28.168  1.00  0.00     0.344 HD
ENDBRANCH   7   8
ENDBRANCH   6   7
ENDBRANCH   3   6
ENDBRANCH   1   2
BRANCH   1  12
ATOM     12  O   UNL     1      46.441  21.471  32.875  1.00  0.00    -0.484 OA
BRANCH  12  13
ATOM     13  C   UNL     1      47.815  22.073  32.885  1.00  0.00     0.120 A 
ATOM     14  C   UNL     1      48.921  21.405  33.646  1.00  0.00     0.047 A 
ATOM     15  C   UNL     1      48.082  23.344  32.134  1.00  0.00     0.047 A 
ATOM     16  C   UNL     1      50.295  22.007  33.656  1.00  0.00     0.016 A 
ATOM     17  C   UNL     1      49.456  23.946  32.144  1.00  0.00     0.016 A 
ATOM     18  C   UNL     1      50.562  23.277  32.906  1.00  0.00     0.018 A 
BRANCH  18  19
ATOM     19  C   UNL     1      51.935  23.880  32.915  1.00  0.00     0.140 A 
ATOM     20  N   UNL     1      52.433  24.954  31.993  1.00  0.00    -0.210 NA
ATOM     21  N   UNL     1      53.053  23.516  33.848  1.00  0.00    -0.332 N 
ATOM     22  C   UNL     1      53.857  25.253  32.356  1.00  0.00     0.168 A 
ATOM     23  C   UNL     1      54.240  24.365  33.502  1.00  0.00     0.150 A 
ATOM     24  N   UNL     1      54.855  26.220  31.790  1.00  0.00    -0.276 N 
ATOM     25  C   UNL     1      55.621  24.443  34.083  1.00  0.00     0.282 A 
ATOM     26  C   UNL     1      56.236  26.298  32.371  1.00  0.00     0.332 A 
ATOM     27  O   UNL     1      56.003  23.554  35.230  1.00  0.00    -0.267 OA
ATOM     28  N   UNL     1      56.619  25.410  33.518  1.00  0.00    -0.258 N 
ATOM     29  O   UNL     1      57.234  27.264  31.806  1.00  0.00    -0.247 OA
ATOM     30  H   UNL     1      53.012  22.829  34.573  1.00  0.00     0.168 HD
BRANCH  24  31
ATOM     31  C   UNL     1      54.472  27.108  30.644  1.00  0.00     0.129 C 
BRANCH  31  32
ATOM     32  C   UNL     1      54.402  26.549  29.254  1.00  0.00     0.019 C 
ATOM     33  C   UNL     1      55.336  25.450  28.839  1.00  0.00     0.006 C 
ENDBRANCH  31  32
ENDBRANCH  24  31
BRANCH  28  34
ATOM     34  C   UNL     1      57.999  25.487  34.099  1.00  0.00     0.131 C 
BRANCH  34  35
ATOM     35  C   UNL     1      58.258  26.336  35.309  1.00  0.00     0.019 C 
ATOM     36  C   UNL     1      58.568  25.690  36.626  1.00  0.00     0.006 C 
ENDBRANCH  34  35
ENDBRANCH  28  34
ENDBRANCH  18  19
ENDBRANCH  12  13
ENDBRANCH   1  12
TORSDOF 11
ENDMDL
MODEL 14
REMARK VINA RESULT:    -6.719      5.287     10.010
REMARK INTER + INTRA:         -11.632
REMARK INTER:                 -10.906
REMARK INTRA:                  -0.726
REMARK UNBOUND:                -0.789
REMARK SMILES CCCn1c(=O)c2[nH]c(-c3ccc(OCC(=O)NCC[NH3+])cc3)nc2n(CCC)c1=O
REMARK SMILES IDX 15 1 16 2 18 3 17 4 19 6 20 7 21 8 14 12 13 13 12 14 22 15
REMARK SMILES IDX 11 16 23 17 10 18 9 19 24 20 8 21 25 22 7 23 26 24 5 25
REMARK SMILES IDX 30 26 6 27 4 28 31 29 27 31 28 32 29 33 3 34 2 35 1 36
REMARK H PARENT 18 5 21 9 21 10 21 11 8 30
REMARK INDEX MAP 7 1 5 2 4 3 6 4 39 5 3 6 1 7 2 8 34 9 35 10 36 11 8 12 9 13
REMARK INDEX MAP 10 14 11 15 12 16 13 17 14 18 15 19 16 20 17 21 18 22 19 23
REMARK INDEX MAP 20 24 21 25 22 26 24 27 25 28 26 29 46 30 23 31 27 32 29 33
REMARK INDEX MAP 28 34 30 35 31 36
ROOT
ATOM      1  C   UNL     1      56.305  27.599  31.949  1.00  0.00     0.329 C 
ENDROOT
BRANCH   1   2
ATOM      2  C   UNL     1      57.272  27.410  33.080  1.00  0.00     0.258 C 
ATOM      3  N   UNL     1      56.849  27.712  34.487  1.00  0.00    -0.347 N 
ATOM      4  O   UNL     1      58.662  26.919  32.803  1.00  0.00    -0.271 OA
ATOM      5  H   UNL     1      55.923  28.040  34.671  1.00  0.00     0.163 HD
BRANCH   3   6
ATOM      6  C   UNL     1      57.817  27.523  35.618  1.00  0.00     0.177 C 
BRANCH   6   7
ATOM      7  C   UNL     1      57.922  28.560  36.696  1.00  0.00     0.280 C 
BRANCH   7   8
ATOM      8  N   UNL     1      58.301  29.969  36.347  1.00  0.00    -0.356 N 
ATOM      9  H   UNL     1      58.927  30.327  37.039  1.00  0.00     0.344 HD
ATOM     10  H   UNL     1      57.977  30.472  35.545  1.00  0.00     0.344 HD
ATOM     11  H   UNL     1      58.629  30.905  36.228  1.00  0.00     0.344 HD
ENDBRANCH   7   8
ENDBRANCH   6   7
ENDBRANCH   3   6
ENDBRANCH   1   2
BRANCH   1  12
ATOM     12  O   UNL     1      55.871  26.421  31.128  1.00  0.00    -0.484 OA
BRANCH  12  13
ATOM     13  C   UNL     1      54.565  25.743  31.420  1.00  0.00     0.120 A 
ATOM     14  C   UNL     1      54.274  25.242  32.804  1.00  0.00     0.047 A 
ATOM     15  C   UNL     1      53.552  25.565  30.329  1.00  0.00     0.047 A 
ATOM     16  C   UNL     1      52.968  24.564  33.097  1.00  0.00     0.016 A 
ATOM     17  C   UNL     1      52.246  24.887  30.622  1.00  0.00     0.016 A 
ATOM     18  C   UNL     1      51.955  24.387  32.005  1.00  0.00     0.018 A 
BRANCH  18  19
ATOM     19  C   UNL     1      50.649  23.709  32.297  1.00  0.00     0.140 A 
ATOM     20  N   UNL     1      50.406  22.686  33.368  1.00  0.00    -0.210 NA
ATOM     21  N   UNL     1      49.356  23.933  31.570  1.00  0.00    -0.332 N 
ATOM     22  C   UNL     1      48.964  22.280  33.302  1.00  0.00     0.168 A 
ATOM     23  C   UNL     1      48.315  23.049  32.192  1.00  0.00     0.150 A 
ATOM     24  N   UNL     1      48.158  21.307  34.111  1.00  0.00    -0.276 N 
ATOM     25  C   UNL     1      46.859  22.847  31.888  1.00  0.00     0.282 A 
ATOM     26  C   UNL     1      46.703  21.104  33.809  1.00  0.00     0.332 A 
ATOM     27  O   UNL     1      46.211  23.618  30.777  1.00  0.00    -0.267 OA
ATOM     28  N   UNL     1      46.053  21.874  32.698  1.00  0.00    -0.258 N 
ATOM     29  O   UNL     1      45.896  20.132  34.617  1.00  0.00    -0.247 OA
ATOM     30  H   UNL     1      49.213  24.561  30.805  1.00  0.00     0.168 HD
BRANCH  24  31
ATOM     31  C   UNL     1      48.807  20.536  35.223  1.00  0.00     0.129 C 
BRANCH  31  32
ATOM     32  C   UNL     1      49.938  19.597  34.923  1.00  0.00     0.019 C 
ATOM     33  C   UNL     1      51.316  19.895  35.435  1.00  0.00     0.006 C 
ENDBRANCH  31  32
ENDBRANCH  24  31
BRANCH  28  34
ATOM     34  C   UNL     1      44.599  21.673  32.394  1.00  0.00     0.131 C 
BRANCH  34  35
ATOM     35  C   UNL     1      43.555  22.341  33.241  1.00  0.00     0.019 C 
ATOM     36  C   UNL     1      42.780  23.504  32.696  1.00  0.00     0.006 C 
ENDBRANCH  34  35
ENDBRANCH  28  34
ENDBRANCH  18  19
ENDBRANCH  12  13
ENDBRANCH   1  12
TORSDOF 11
ENDMDL
MODEL 15
REMARK VINA RESULT:    -6.688      2.634      3.328
REMARK INTER + INTRA:         -11.582
REMARK INTER:                 -11.308
REMARK INTRA:                  -0.274
REMARK UNBOUND:                -0.789
REMARK SMILES CCCn1c(=O)c2[nH]c(-c3ccc(OCC(=O)NCC[NH3+])cc3)nc2n(CCC)c1=O
REMARK SMILES IDX 15 1 16 2 18 3 17 4 19 6 20 7 21 8 14 12 13 13 12 14 22 15
REMARK SMILES IDX 11 16 23 17 10 18 9 19 24 20 8 21 25 22 7 23 26 24 5 25
REMARK SMILES IDX 30 26 6 27 4 28 31 29 27 31 28 32 29 33 3 34 2 35 1 36
REMARK H PARENT 18 5 21 9 21 10 21 11 8 30
REMARK INDEX MAP 7 1 5 2 4 3 6 4 39 5 3 6 1 7 2 8 34 9 35 10 36 11 8 12 9 13
REMARK INDEX MAP 10 14 11 15 12 16 13 17 14 18 15 19 16 20 17 21 18 22 19 23
REMARK INDEX MAP 20 24 21 25 22 26 24 27 25 28 26 29 46 30 23 31 27 32 29 33
REMARK INDEX MAP 28 34 30 35 31 36
ROOT
ATOM      1  C   UNL     1      46.468  20.356  31.154  1.00  0.00     0.329 C 
ENDROOT
BRANCH   1   2
ATOM      2  C   UNL     1      45.689  19.742  32.278  1.00  0.00     0.258 C 
ATOM      3  N   UNL     1      45.718  18.257  32.489  1.00  0.00    -0.347 N 
ATOM      4  O   UNL     1      44.878  20.614  33.191  1.00  0.00    -0.271 OA
ATOM      5  H   UNL     1      46.258  17.676  31.880  1.00  0.00     0.163 HD
BRANCH   3   6
ATOM      6  C   UNL     1      44.938  17.644  33.614  1.00  0.00     0.177 C 
BRANCH   6   7
ATOM      7  C   UNL     1      43.439  17.678  33.592  1.00  0.00     0.280 C 
BRANCH   7   8
ATOM      8  N   UNL     1      42.667  16.459  33.181  1.00  0.00    -0.356 N 
ATOM      9  H   UNL     1      41.704  16.699  33.061  1.00  0.00     0.344 HD
ATOM     10  H   UNL     1      43.056  15.548  33.047  1.00  0.00     0.344 HD
ATOM     11  H   UNL     1      42.043  15.729  32.905  1.00  0.00     0.344 HD
ENDBRANCH   7   8
ENDBRANCH   6   7
ENDBRANCH   3   6
ENDBRANCH   1   2
BRANCH   1  12
ATOM     12  O   UNL     1      47.316  21.568  31.402  1.00  0.00    -0.484 OA
BRANCH  12  13
ATOM     13  C   UNL     1      48.232  21.613  32.589  1.00  0.00     0.120 A 
ATOM     14  C   UNL     1      48.345  20.422  33.494  1.00  0.00     0.047 A 
ATOM     15  C   UNL     1      49.035  22.848  32.870  1.00  0.00     0.047 A 
ATOM     16  C   UNL     1      49.261  20.466  34.682  1.00  0.00     0.016 A 
ATOM     17  C   UNL     1      49.951  22.892  34.057  1.00  0.00     0.016 A 
ATOM     18  C   UNL     1      50.064  21.701  34.962  1.00  0.00     0.018 A 
BRANCH  18  19
ATOM     19  C   UNL     1      50.980  21.747  36.149  1.00  0.00     0.140 A 
ATOM     20  N   UNL     1      52.461  21.507  36.129  1.00  0.00    -0.210 NA
ATOM     21  N   UNL     1      50.578  22.040  37.565  1.00  0.00    -0.332 N 
ATOM     22  C   UNL     1      52.973  21.652  37.531  1.00  0.00     0.168 A 
ATOM     23  C   UNL     1      51.810  21.981  38.418  1.00  0.00     0.150 A 
ATOM     24  N   UNL     1      54.350  21.526  38.115  1.00  0.00    -0.276 N 
ATOM     25  C   UNL     1      52.022  22.185  39.890  1.00  0.00     0.282 A 
ATOM     26  C   UNL     1      54.562  21.730  39.586  1.00  0.00     0.332 A 
ATOM     27  O   UNL     1      50.857  22.514  40.776  1.00  0.00    -0.267 OA
ATOM     28  N   UNL     1      53.398  22.059  40.473  1.00  0.00    -0.258 N 
ATOM     29  O   UNL     1      55.938  21.605  40.170  1.00  0.00    -0.247 OA
ATOM     30  H   UNL     1      49.651  22.239  37.882  1.00  0.00     0.168 HD
BRANCH  24  31
ATOM     31  C   UNL     1      55.514  21.197  37.228  1.00  0.00     0.129 C 
BRANCH  31  32
ATOM     32  C   UNL     1      56.336  22.300  36.630  1.00  0.00     0.019 C 
ATOM     33  C   UNL     1      55.769  23.147  35.529  1.00  0.00     0.006 C 
ENDBRANCH  31  32
ENDBRANCH  24  31
BRANCH  28  34
ATOM     34  C   UNL     1      53.609  22.263  41.944  1.00  0.00     0.131 C 
BRANCH  34  35
ATOM     35  C   UNL     1      53.860  23.641  42.483  1.00  0.00     0.019 C 
ATOM     36  C   UNL     1      55.217  24.006  43.006  1.00  0.00     0.006 C 
ENDBRANCH  34  35
ENDBRANCH  28  34
ENDBRANCH  18  19
ENDBRANCH  12  13
ENDBRANCH   1  12
TORSDOF 11
ENDMDL
MODEL 16
REMARK VINA RESULT:    -6.632      2.571     10.427
REMARK INTER + INTRA:         -11.492
REMARK INTER:                 -10.669
REMARK INTRA:                  -0.823
REMARK UNBOUND:                -0.789
REMARK SMILES CCCn1c(=O)c2[nH]c(-c3ccc(OCC(=O)NCC[NH3+])cc3)nc2n(CCC)c1=O
REMARK SMILES IDX 15 1 16 2 18 3 17 4 19 6 20 7 21 8 14 12 13 13 12 14 22 15
REMARK SMILES IDX 11 16 23 17 10 18 9 19 24 20 8 21 25 22 7 23 26 24 5 25
REMARK SMILES IDX 30 26 6 27 4 28 31 29 27 31 28 32 29 33 3 34 2 35 1 36
REMARK H PARENT 18 5 21 9 21 10 21 11 8 30
REMARK INDEX MAP 7 1 5 2 4 3 6 4 39 5 3 6 1 7 2 8 34 9 35 10 36 11 8 12 9 13
REMARK INDEX MAP 10 14 11 15 12 16 13 17 14 18 15 19 16 20 17 21 18 22 19 23
REMARK INDEX MAP 20 24 21 25 22 26 24 27 25 28 26 29 46 30 23 31 27 32 29 33
REMARK INDEX MAP 28 34 30 35 31 36
ROOT
ATOM      1  C   UNL     1      53.913  22.082  39.783  1.00  0.00     0.329 C 
ENDROOT
BRANCH   1   2
ATOM      2  C   UNL     1      55.054  21.519  38.990  1.00  0.00     0.258 C 
ATOM      3  N   UNL     1      55.570  20.142  39.290  1.00  0.00    -0.347 N 
ATOM      4  O   UNL     1      55.682  22.332  37.897  1.00  0.00    -0.271 OA
ATOM      5  H   UNL     1      55.151  19.600  40.019  1.00  0.00     0.163 HD
BRANCH   3   6
ATOM      6  C   UNL     1      56.712  19.579  38.497  1.00  0.00     0.177 C 
BRANCH   6   7
ATOM      7  C   UNL     1      56.440  18.701  37.311  1.00  0.00     0.280 C 
BRANCH   7   8
ATOM      8  N   UNL     1      55.446  19.131  36.272  1.00  0.00    -0.356 N 
ATOM      9  H   UNL     1      54.552  19.262  36.700  1.00  0.00     0.344 HD
ATOM     10  H   UNL     1      55.648  19.266  35.302  1.00  0.00     0.344 HD
ATOM     11  H   UNL     1      54.693  19.420  35.682  1.00  0.00     0.344 HD
ENDBRANCH   7   8
ENDBRANCH   6   7
ENDBRANCH   3   6
ENDBRANCH   1   2
BRANCH   1  12
ATOM     12  O   UNL     1      53.111  23.226  39.236  1.00  0.00    -0.484 OA
BRANCH  12  13
ATOM     13  C   UNL     1      52.225  23.018  38.044  1.00  0.00     0.120 A 
ATOM     14  C   UNL     1      52.524  23.725  36.755  1.00  0.00     0.047 A 
ATOM     15  C   UNL     1      51.040  22.104  38.141  1.00  0.00     0.047 A 
ATOM     16  C   UNL     1      51.637  23.517  35.562  1.00  0.00     0.016 A 
ATOM     17  C   UNL     1      50.153  21.896  36.949  1.00  0.00     0.016 A 
ATOM     18  C   UNL     1      50.452  22.603  35.660  1.00  0.00     0.018 A 
BRANCH  18  19
ATOM     19  C   UNL     1      49.565  22.395  34.468  1.00  0.00     0.140 A 
ATOM     20  N   UNL     1      48.861  21.121  34.106  1.00  0.00    -0.210 NA
ATOM     21  N   UNL     1      49.226  23.423  33.430  1.00  0.00    -0.332 N 
ATOM     22  C   UNL     1      48.087  21.362  32.844  1.00  0.00     0.168 A 
ATOM     23  C   UNL     1      48.312  22.784  32.426  1.00  0.00     0.150 A 
ATOM     24  N   UNL     1      47.206  20.469  32.021  1.00  0.00    -0.276 N 
ATOM     25  C   UNL     1      47.657  23.315  31.185  1.00  0.00     0.282 A 
ATOM     26  C   UNL     1      46.550  20.999  30.780  1.00  0.00     0.332 A 
ATOM     27  O   UNL     1      47.883  24.738  30.768  1.00  0.00    -0.267 OA
ATOM     28  N   UNL     1      46.775  22.422  30.362  1.00  0.00    -0.258 N 
ATOM     29  O   UNL     1      45.669  20.107  29.957  1.00  0.00    -0.247 OA
ATOM     30  H   UNL     1      49.552  24.368  33.411  1.00  0.00     0.168 HD
BRANCH  24  31
ATOM     31  C   UNL     1      46.980  19.046  32.439  1.00  0.00     0.129 C 
BRANCH  31  32
ATOM     32  C   UNL     1      45.982  18.730  33.513  1.00  0.00     0.019 C 
ATOM     33  C   UNL     1      44.790  17.873  33.201  1.00  0.00     0.006 C 
ENDBRANCH  31  32
ENDBRANCH  24  31
BRANCH  28  34
ATOM     34  C   UNL     1      46.121  22.953  29.122  1.00  0.00     0.131 C 
BRANCH  34  35
ATOM     35  C   UNL     1      44.642  23.209  29.104  1.00  0.00     0.019 C 
ATOM     36  C   UNL     1      43.849  23.111  30.373  1.00  0.00     0.006 C 
ENDBRANCH  34  35
ENDBRANCH  28  34
ENDBRANCH  18  19
ENDBRANCH  12  13
ENDBRANCH   1  12
TORSDOF 11
ENDMDL
MODEL 17
REMARK VINA RESULT:    -6.623      2.147      2.920
REMARK INTER + INTRA:         -11.477
REMARK INTER:                 -10.681
REMARK INTRA:                  -0.796
REMARK UNBOUND:                -0.789
REMARK SMILES CCCn1c(=O)c2[nH]c(-c3ccc(OCC(=O)NCC[NH3+])cc3)nc2n(CCC)c1=O
REMARK SMILES IDX 15 1 16 2 18 3 17 4 19 6 20 7 21 8 14 12 13 13 12 14 22 15
REMARK SMILES IDX 11 16 23 17 10 18 9 19 24 20 8 21 25 22 7 23 26 24 5 25
REMARK SMILES IDX 30 26 6 27 4 28 31 29 27 31 28 32 29 33 3 34 2 35 1 36
REMARK H PARENT 18 5 21 9 21 10 21 11 8 30
REMARK INDEX MAP 7 1 5 2 4 3 6 4 39 5 3 6 1 7 2 8 34 9 35 10 36 11 8 12 9 13
REMARK INDEX MAP 10 14 11 15 12 16 13 17 14 18 15 19 16 20 17 21 18 22 19 23
REMARK INDEX MAP 20 24 21 25 22 26 24 27 25 28 26 29 46 30 23 31 27 32 29 33
REMARK INDEX MAP 28 34 30 35 31 36
ROOT
ATOM      1  C   UNL     1      45.334  21.183  32.137  1.00  0.00     0.329 C 
ENDROOT
BRANCH   1   2
ATOM      2  C   UNL     1      45.294  22.182  31.020  1.00  0.00     0.258 C 
ATOM      3  N   UNL     1      46.545  22.506  30.258  1.00  0.00    -0.347 N 
ATOM      4  O   UNL     1      44.003  22.857  30.663  1.00  0.00    -0.271 OA
ATOM      5  H   UNL     1      47.406  22.056  30.496  1.00  0.00     0.163 HD
BRANCH   3   6
ATOM      6  C   UNL     1      46.505  23.506  29.140  1.00  0.00     0.177 C 
BRANCH   6   7
ATOM      7  C   UNL     1      47.662  24.435  28.924  1.00  0.00     0.280 C 
BRANCH   7   8
ATOM      8  N   UNL     1      48.338  25.076  30.100  1.00  0.00    -0.356 N 
ATOM      9  H   UNL     1      49.302  24.812  30.115  1.00  0.00     0.344 HD
ATOM     10  H   UNL     1      47.893  25.676  30.765  1.00  0.00     0.344 HD
ATOM     11  H   UNL     1      48.903  25.441  30.840  1.00  0.00     0.344 HD
ENDBRANCH   7   8
ENDBRANCH   6   7
ENDBRANCH   3   6
ENDBRANCH   1   2
BRANCH   1  12
ATOM     12  O   UNL     1      46.594  20.418  32.416  1.00  0.00    -0.484 OA
BRANCH  12  13
ATOM     13  C   UNL     1      47.432  20.764  33.611  1.00  0.00     0.120 A 
ATOM     14  C   UNL     1      48.814  21.315  33.424  1.00  0.00     0.047 A 
ATOM     15  C   UNL     1      46.887  20.558  34.994  1.00  0.00     0.047 A 
ATOM     16  C   UNL     1      49.653  21.661  34.619  1.00  0.00     0.016 A 
ATOM     17  C   UNL     1      47.725  20.904  36.189  1.00  0.00     0.016 A 
ATOM     18  C   UNL     1      49.108  21.455  36.001  1.00  0.00     0.018 A 
BRANCH  18  19
ATOM     19  C   UNL     1      49.945  21.801  37.197  1.00  0.00     0.140 A 
ATOM     20  N   UNL     1      51.421  21.567  37.337  1.00  0.00    -0.210 NA
ATOM     21  N   UNL     1      49.456  22.441  38.462  1.00  0.00    -0.332 N 
ATOM     22  C   UNL     1      51.842  22.062  38.688  1.00  0.00     0.168 A 
ATOM     23  C   UNL     1      50.628  22.602  39.383  1.00  0.00     0.150 A 
ATOM     24  N   UNL     1      53.175  22.091  39.376  1.00  0.00    -0.276 N 
ATOM     25  C   UNL     1      50.746  23.172  40.767  1.00  0.00     0.282 A 
ATOM     26  C   UNL     1      53.294  22.660  40.759  1.00  0.00     0.332 A 
ATOM     27  O   UNL     1      49.532  23.712  41.461  1.00  0.00    -0.267 OA
ATOM     28  N   UNL     1      52.080  23.201  41.454  1.00  0.00    -0.258 N 
ATOM     29  O   UNL     1      54.626  22.689  41.446  1.00  0.00    -0.247 OA
ATOM     30  H   UNL     1      48.513  22.713  38.656  1.00  0.00     0.168 HD
BRANCH  24  31
ATOM     31  C   UNL     1      54.389  21.550  38.680  1.00  0.00     0.129 C 
BRANCH  31  32
ATOM     32  C   UNL     1      55.179  22.430  37.758  1.00  0.00     0.019 C 
ATOM     33  C   UNL     1      54.920  22.392  36.280  1.00  0.00     0.006 C 
ENDBRANCH  31  32
ENDBRANCH  24  31
BRANCH  28  34
ATOM     34  C   UNL     1      52.197  23.770  42.836  1.00  0.00     0.131 C 
BRANCH  34  35
ATOM     35  C   UNL     1      52.336  25.251  43.029  1.00  0.00     0.019 C 
ATOM     36  C   UNL     1      51.638  25.927  44.173  1.00  0.00     0.006 C 
ENDBRANCH  34  35
ENDBRANCH  28  34
ENDBRANCH  18  19
ENDBRANCH  12  13
ENDBRANCH   1  12
TORSDOF 11
ENDMDL
MODEL 18
REMARK VINA RESULT:    -6.600      5.125     10.755
REMARK INTER + INTRA:         -11.440
REMARK INTER:                 -10.466
REMARK INTRA:                  -0.974
REMARK UNBOUND:                -0.789
REMARK SMILES CCCn1c(=O)c2[nH]c(-c3ccc(OCC(=O)NCC[NH3+])cc3)nc2n(CCC)c1=O
REMARK SMILES IDX 15 1 16 2 18 3 17 4 19 6 20 7 21 8 14 12 13 13 12 14 22 15
REMARK SMILES IDX 11 16 23 17 10 18 9 19 24 20 8 21 25 22 7 23 26 24 5 25
REMARK SMILES IDX 30 26 6 27 4 28 31 29 27 31 28 32 29 33 3 34 2 35 1 36
REMARK H PARENT 18 5 21 9 21 10 21 11 8 30
REMARK INDEX MAP 7 1 5 2 4 3 6 4 39 5 3 6 1 7 2 8 34 9 35 10 36 11 8 12 9 13
REMARK INDEX MAP 10 14 11 15 12 16 13 17 14 18 15 19 16 20 17 21 18 22 19 23
REMARK INDEX MAP 20 24 21 25 22 26 24 27 25 28 26 29 46 30 23 31 27 32 29 33
REMARK INDEX MAP 28 34 30 35 31 36
ROOT
ATOM      1  C   UNL     1      57.299  27.358  33.380  1.00  0.00     0.329 C 
ENDROOT
BRANCH   1   2
ATOM      2  C   UNL     1      58.114  27.717  34.586  1.00  0.00     0.258 C 
ATOM      3  N   UNL     1      58.025  29.097  35.168  1.00  0.00    -0.347 N 
ATOM      4  O   UNL     1      59.018  26.697  35.212  1.00  0.00    -0.271 OA
ATOM      5  H   UNL     1      57.422  29.777  34.751  1.00  0.00     0.163 HD
BRANCH   3   6
ATOM      6  C   UNL     1      58.841  29.456  36.375  1.00  0.00     0.177 C 
BRANCH   6   7
ATOM      7  C   UNL     1      58.417  28.982  37.734  1.00  0.00     0.280 C 
BRANCH   7   8
ATOM      8  N   UNL     1      58.807  27.613  38.205  1.00  0.00    -0.356 N 
ATOM      9  H   UNL     1      59.249  27.681  39.100  1.00  0.00     0.344 HD
ATOM     10  H   UNL     1      58.650  26.763  37.702  1.00  0.00     0.344 HD
ATOM     11  H   UNL     1      59.117  26.762  38.631  1.00  0.00     0.344 HD
ENDBRANCH   7   8
ENDBRANCH   6   7
ENDBRANCH   3   6
ENDBRANCH   1   2
BRANCH   1  12
ATOM     12  O   UNL     1      57.030  25.918  33.057  1.00  0.00    -0.484 OA
BRANCH  12  13
ATOM     13  C   UNL     1      55.619  25.412  33.001  1.00  0.00     0.120 A 
ATOM     14  C   UNL     1      55.022  24.719  34.190  1.00  0.00     0.047 A 
ATOM     15  C   UNL     1      54.804  25.601  31.756  1.00  0.00     0.047 A 
ATOM     16  C   UNL     1      53.611  24.213  34.134  1.00  0.00     0.016 A 
ATOM     17  C   UNL     1      53.393  25.095  31.699  1.00  0.00     0.016 A 
ATOM     18  C   UNL     1      52.797  24.402  32.888  1.00  0.00     0.018 A 
BRANCH  18  19
ATOM     19  C   UNL     1      51.385  23.897  32.831  1.00  0.00     0.140 A 
ATOM     20  N   UNL     1      50.791  22.840  33.715  1.00  0.00    -0.210 NA
ATOM     21  N   UNL     1      50.320  24.359  31.881  1.00  0.00    -0.332 N 
ATOM     22  C   UNL     1      49.359  22.650  33.310  1.00  0.00     0.168 A 
ATOM     23  C   UNL     1      49.068  23.588  32.178  1.00  0.00     0.150 A 
ATOM     24  N   UNL     1      48.282  21.742  33.828  1.00  0.00    -0.276 N 
ATOM     25  C   UNL     1      47.701  23.620  31.562  1.00  0.00     0.282 A 
ATOM     26  C   UNL     1      46.915  21.773  33.213  1.00  0.00     0.332 A 
ATOM     27  O   UNL     1      47.411  24.559  30.428  1.00  0.00    -0.267 OA
ATOM     28  N   UNL     1      46.624  22.712  32.079  1.00  0.00    -0.258 N 
ATOM     29  O   UNL     1      45.838  20.867  33.730  1.00  0.00    -0.247 OA
ATOM     30  H   UNL     1      50.427  25.058  31.175  1.00  0.00     0.168 HD
BRANCH  24  31
ATOM     31  C   UNL     1      48.573  20.803  34.962  1.00  0.00     0.129 C 
BRANCH  31  32
ATOM     32  C   UNL     1      48.523  21.298  36.377  1.00  0.00     0.019 C 
ATOM     33  C   UNL     1      47.217  21.330  37.114  1.00  0.00     0.006 C 
ENDBRANCH  31  32
ENDBRANCH  24  31
BRANCH  28  34
ATOM     34  C   UNL     1      45.257  22.744  31.463  1.00  0.00     0.131 C 
BRANCH  34  35
ATOM     35  C   UNL     1      45.056  22.264  30.056  1.00  0.00     0.019 C 
ATOM     36  C   UNL     1      45.731  21.008  29.589  1.00  0.00     0.006 C 
ENDBRANCH  34  35
ENDBRANCH  28  34
ENDBRANCH  18  19
ENDBRANCH  12  13
ENDBRANCH   1  12
TORSDOF 11
ENDMDL
MODEL 19
REMARK VINA RESULT:    -6.565      5.791     10.021
REMARK INTER + INTRA:         -11.383
REMARK INTER:                 -10.619
REMARK INTRA:                  -0.764
REMARK UNBOUND:                -0.789
REMARK SMILES CCCn1c(=O)c2[nH]c(-c3ccc(OCC(=O)NCC[NH3+])cc3)nc2n(CCC)c1=O
REMARK SMILES IDX 15 1 16 2 18 3 17 4 19 6 20 7 21 8 14 12 13 13 12 14 22 15
REMARK SMILES IDX 11 16 23 17 10 18 9 19 24 20 8 21 25 22 7 23 26 24 5 25
REMARK SMILES IDX 30 26 6 27 4 28 31 29 27 31 28 32 29 33 3 34 2 35 1 36
REMARK H PARENT 18 5 21 9 21 10 21 11 8 30
REMARK INDEX MAP 7 1 5 2 4 3 6 4 39 5 3 6 1 7 2 8 34 9 35 10 36 11 8 12 9 13
REMARK INDEX MAP 10 14 11 15 12 16 13 17 14 18 15 19 16 20 17 21 18 22 19 23
REMARK INDEX MAP 20 24 21 25 22 26 24 27 25 28 26 29 46 30 23 31 27 32 29 33
REMARK INDEX MAP 28 34 30 35 31 36
ROOT
ATOM      1  C   UNL     1      57.402  26.984  30.998  1.00  0.00     0.329 C 
ENDROOT
BRANCH   1   2
ATOM      2  C   UNL     1      58.219  26.069  30.137  1.00  0.00     0.258 C 
ATOM      3  N   UNL     1      58.395  24.631  30.525  1.00  0.00    -0.347 N 
ATOM      4  O   UNL     1      58.860  26.592  28.885  1.00  0.00    -0.271 OA
ATOM      5  H   UNL     1      57.968  24.282  31.360  1.00  0.00     0.163 HD
BRANCH   3   6
ATOM      6  C   UNL     1      59.213  23.715  29.662  1.00  0.00     0.177 C 
BRANCH   6   7
ATOM      7  C   UNL     1      58.538  22.839  28.650  1.00  0.00     0.280 C 
BRANCH   7   8
ATOM      8  N   UNL     1      58.781  21.359  28.659  1.00  0.00    -0.356 N 
ATOM      9  H   UNL     1      59.765  21.182  28.685  1.00  0.00     0.344 HD
ATOM     10  H   UNL     1      58.069  20.657  28.642  1.00  0.00     0.344 HD
ATOM     11  H   UNL     1      59.076  20.404  28.669  1.00  0.00     0.344 HD
ENDBRANCH   7   8
ENDBRANCH   6   7
ENDBRANCH   3   6
ENDBRANCH   1   2
BRANCH   1  12
ATOM     12  O   UNL     1      56.931  26.524  32.347  1.00  0.00    -0.484 OA
BRANCH  12  13
ATOM     13  C   UNL     1      55.582  25.886  32.493  1.00  0.00     0.120 A 
ATOM     14  C   UNL     1      54.650  25.825  31.319  1.00  0.00     0.047 A 
ATOM     15  C   UNL     1      55.165  25.309  33.813  1.00  0.00     0.047 A 
ATOM     16  C   UNL     1      53.300  25.186  31.465  1.00  0.00     0.016 A 
ATOM     17  C   UNL     1      53.815  24.671  33.960  1.00  0.00     0.016 A 
ATOM     18  C   UNL     1      52.883  24.609  32.785  1.00  0.00     0.018 A 
BRANCH  18  19
ATOM     19  C   UNL     1      51.534  23.971  32.933  1.00  0.00     0.140 A 
ATOM     20  N   UNL     1      51.173  22.888  33.907  1.00  0.00    -0.210 NA
ATOM     21  N   UNL     1      50.308  24.301  32.132  1.00  0.00    -0.332 N 
ATOM     22  C   UNL     1      49.725  22.551  33.708  1.00  0.00     0.168 A 
ATOM     23  C   UNL     1      49.191  23.423  32.612  1.00  0.00     0.150 A 
ATOM     24  N   UNL     1      48.823  21.560  34.385  1.00  0.00    -0.276 N 
ATOM     25  C   UNL     1      47.755  23.307  32.191  1.00  0.00     0.282 A 
ATOM     26  C   UNL     1      47.388  21.443  33.964  1.00  0.00     0.332 A 
ATOM     27  O   UNL     1      47.222  24.181  31.095  1.00  0.00    -0.267 OA
ATOM     28  N   UNL     1      46.854  22.317  32.868  1.00  0.00    -0.258 N 
ATOM     29  O   UNL     1      46.487  20.453  34.640  1.00  0.00    -0.247 OA
ATOM     30  H   UNL     1      50.248  24.987  31.407  1.00  0.00     0.168 HD
BRANCH  24  31
ATOM     31  C   UNL     1      49.357  20.687  35.481  1.00  0.00     0.129 C 
BRANCH  31  32
ATOM     32  C   UNL     1      50.288  19.558  35.153  1.00  0.00     0.019 C 
ATOM     33  C   UNL     1      51.763  19.709  35.387  1.00  0.00     0.006 C 
ENDBRANCH  31  32
ENDBRANCH  24  31
BRANCH  28  34
ATOM     34  C   UNL     1      45.419  22.200  32.447  1.00  0.00     0.131 C 
BRANCH  34  35
ATOM     35  C   UNL     1      44.439  23.273  32.818  1.00  0.00     0.019 C 
ATOM     36  C   UNL     1      42.981  22.943  32.952  1.00  0.00     0.006 C 
ENDBRANCH  34  35
ENDBRANCH  28  34
ENDBRANCH  18  19
ENDBRANCH  12  13
ENDBRANCH   1  12
TORSDOF 11
ENDMDL
MODEL 20
REMARK VINA RESULT:    -6.557      6.378     10.327
REMARK INTER + INTRA:         -11.370
REMARK INTER:                 -10.259
REMARK INTRA:                  -1.111
REMARK UNBOUND:                -0.789
REMARK SMILES CCCn1c(=O)c2[nH]c(-c3ccc(OCC(=O)NCC[NH3+])cc3)nc2n(CCC)c1=O
REMARK SMILES IDX 15 1 16 2 18 3 17 4 19 6 20 7 21 8 14 12 13 13 12 14 22 15
REMARK SMILES IDX 11 16 23 17 10 18 9 19 24 20 8 21 25 22 7 23 26 24 5 25
REMARK SMILES IDX 30 26 6 27 4 28 31 29 27 31 28 32 29 33 3 34 2 35 1 36
REMARK H PARENT 18 5 21 9 21 10 21 11 8 30
REMARK INDEX MAP 7 1 5 2 4 3 6 4 39 5 3 6 1 7 2 8 34 9 35 10 36 11 8 12 9 13
REMARK INDEX MAP 10 14 11 15 12 16 13 17 14 18 15 19 16 20 17 21 18 22 19 23
REMARK INDEX MAP 20 24 21 25 22 26 24 27 25 28 26 29 46 30 23 31 27 32 29 33
REMARK INDEX MAP 28 34 30 35 31 36
ROOT
ATOM      1  C   UNL     1      58.554  26.566  30.854  1.00  0.00     0.329 C 
ENDROOT
BRANCH   1   2
ATOM      2  C   UNL     1      58.610  25.438  29.869  1.00  0.00     0.258 C 
ATOM      3  N   UNL     1      58.906  25.716  28.424  1.00  0.00    -0.347 N 
ATOM      4  O   UNL     1      58.370  24.029  30.327  1.00  0.00    -0.271 OA
ATOM      5  H   UNL     1      59.066  26.655  28.119  1.00  0.00     0.163 HD
BRANCH   3   6
ATOM      6  C   UNL     1      58.962  24.586  27.439  1.00  0.00     0.177 C 
BRANCH   6   7
ATOM      7  C   UNL     1      57.696  24.053  26.838  1.00  0.00     0.280 C 
BRANCH   7   8
ATOM      8  N   UNL     1      56.762  23.226  27.670  1.00  0.00    -0.356 N 
ATOM      9  H   UNL     1      56.405  22.471  27.120  1.00  0.00     0.344 HD
ATOM     10  H   UNL     1      56.531  23.402  28.627  1.00  0.00     0.344 HD
ATOM     11  H   UNL     1      56.123  22.597  28.113  1.00  0.00     0.344 HD
ENDBRANCH   7   8
ENDBRANCH   6   7
ENDBRANCH   3   6
ENDBRANCH   1   2
BRANCH   1  12
ATOM     12  O   UNL     1      57.284  27.346  31.031  1.00  0.00    -0.484 OA
BRANCH  12  13
ATOM     13  C   UNL     1      55.993  26.628  31.294  1.00  0.00     0.120 A 
ATOM     14  C   UNL     1      55.833  25.804  32.537  1.00  0.00     0.047 A 
ATOM     15  C   UNL     1      54.864  26.735  30.313  1.00  0.00     0.047 A 
ATOM     16  C   UNL     1      54.542  25.086  32.800  1.00  0.00     0.016 A 
ATOM     17  C   UNL     1      53.573  26.017  30.576  1.00  0.00     0.016 A 
ATOM     18  C   UNL     1      53.413  25.193  31.819  1.00  0.00     0.018 A 
BRANCH  18  19
ATOM     19  C   UNL     1      52.121  24.476  32.081  1.00  0.00     0.140 A 
ATOM     20  N   UNL     1      50.810  24.745  31.403  1.00  0.00    -0.210 NA
ATOM     21  N   UNL     1      51.914  23.363  33.066  1.00  0.00    -0.332 N 
ATOM     22  C   UNL     1      49.793  23.799  31.969  1.00  0.00     0.168 A 
ATOM     23  C   UNL     1      50.474  22.945  32.996  1.00  0.00     0.150 A 
ATOM     24  N   UNL     1      48.333  23.606  31.681  1.00  0.00    -0.276 N 
ATOM     25  C   UNL     1      49.697  21.897  33.736  1.00  0.00     0.282 A 
ATOM     26  C   UNL     1      47.556  22.558  32.421  1.00  0.00     0.332 A 
ATOM     27  O   UNL     1      50.380  21.043  34.763  1.00  0.00    -0.267 OA
ATOM     28  N   UNL     1      48.237  21.703  33.449  1.00  0.00    -0.258 N 
ATOM     29  O   UNL     1      46.096  22.364  32.134  1.00  0.00    -0.247 OA
ATOM     30  H   UNL     1      52.612  22.969  33.663  1.00  0.00     0.168 HD
BRANCH  24  31
ATOM     31  C   UNL     1      47.652  24.460  30.654  1.00  0.00     0.129 C 
BRANCH  31  32
ATOM     32  C   UNL     1      47.249  23.869  29.336  1.00  0.00     0.019 C 
ATOM     33  C   UNL     1      45.801  23.823  28.945  1.00  0.00     0.006 C 
ENDBRANCH  31  32
ENDBRANCH  24  31
BRANCH  28  34
ATOM     34  C   UNL     1      47.461  20.655  34.189  1.00  0.00     0.131 C 
BRANCH  34  35
ATOM     35  C   UNL     1      46.637  21.035  35.383  1.00  0.00     0.019 C 
ATOM     36  C   UNL     1      47.297  21.247  36.713  1.00  0.00     0.006 C 
ENDBRANCH  34  35
ENDBRANCH  28  34
ENDBRANCH  18  19
ENDBRANCH  12  13
ENDBRANCH   1  12
TORSDOF 11
ENDMDL
